
     Program PWSCF v.7.4.1 starts on  4Sep2025 at 14:58:37 

     This program is part of the open-source Quantum ESPRESSO suite
     for quantum simulation of materials; please cite
         "P. Giannozzi et al., J. Phys.:Condens. Matter 21 395502 (2009);
         "P. Giannozzi et al., J. Phys.:Condens. Matter 29 465901 (2017);
         "P. Giannozzi et al., J. Chem. Phys. 152 154105 (2020);
          URL http://www.quantum-espresso.org", 
     in publications or presentations arising from this work. More details at
     http://www.quantum-espresso.org/quote

     Parallel version (MPI & OpenMP), running on       8 processor cores
     Number of MPI processes:                 8
     Threads/MPI process:                     1

     MPI processes distributed on     1 nodes
     36351 MiB available memory on the printing compute node when the environment starts

     Waiting for input...
     Reading input from standard input
     Message from routine read_cards :
     DEPRECATED: no units specified in ATOMIC_POSITIONS card
     Message from routine read_cards :
     ATOMIC_POSITIONS: units set to alat

     Current dimensions of program PWSCF are:
     Max number of different atomic species (ntypx) = 10
     Max number of k-points (npk) =  40000
     Max angular momentum in pseudopotentials (lmaxx) =  4

     R & G space division:  proc/nbgrp/npool/nimage =       8
     Subspace diagonalization in iterative solution of the eigenvalue problem:
     a serial algorithm will be used


     Parallelization info
     --------------------
     sticks:   dense  smooth     PW     G-vecs:    dense   smooth      PW
     Min          69      69     23                 1055     1055     204
     Max          71      71     24                 1056     1056     206
     Sum         559     559    187                 8441     8441    1639

     Using Slab Decomposition



     bravais-lattice index     =            2
     lattice parameter (alat)  =       6.6500  a.u.
     unit-cell volume          =      73.5199 (a.u.)^3
     number of atoms/cell      =            1
     number of atomic types    =            1
     number of electrons       =        10.00
     number of Kohn-Sham states=           20
     kinetic-energy cutoff     =      90.0000  Ry
     charge density cutoff     =     360.0000  Ry
     scf convergence threshold =      1.0E-08
     mixing beta               =       0.7000
     number of iterations used =            8  plain     mixing
     Exchange-correlation= LDA
                           (   1   1   0   0   0   0   0)
     Noncollinear calculation with spin-orbit


     celldm(1)=   6.650000  celldm(2)=   0.000000  celldm(3)=   0.000000
     celldm(4)=   0.000000  celldm(5)=   0.000000  celldm(6)=   0.000000

     crystal axes: (cart. coord. in units of alat)
               a(1) = (  -0.500000   0.000000   0.500000 )  
               a(2) = (   0.000000   0.500000   0.500000 )  
               a(3) = (  -0.500000   0.500000   0.000000 )  

     reciprocal axes: (cart. coord. in units 2 pi/alat)
               b(1) = ( -1.000000 -1.000000  1.000000 )  
               b(2) = (  1.000000  1.000000  1.000000 )  
               b(3) = ( -1.000000  1.000000 -1.000000 )  


     PseudoPot. # 1 for Ni read from file:
     ./Nirel_10.RRKJ3.UPF
     MD5 check sum: e42ce178d24e0a9ee3de33e46cdcd0bb
     Pseudo is Norm-conserving + core correction, Zval = 10.0
     Generated using "atomic" code by A. Dal Corso  (Quantum ESPRESSO distribution)
     Using radial grid of 1195 points,  6 beta functions with: 
                l(1) =   2
                l(2) =   2
                l(3) =   2
                l(4) =   2
                l(5) =   1
                l(6) =   1

     atomic species   valence    mass     pseudopotential
     Ni               10.00    58.69000     Ni( 1.00)

     16 Sym. Ops., with inversion, found



   Cartesian axes

     site n.     atom                  positions (alat units)
         1        Ni     tau(   1) = (   0.0000000   0.0000000   0.0000000  )

     number of k points=   144  Methfessel-Paxton smearing, width (Ry)=  0.0200

     Number of k-points >= 100: set verbosity='high' to print them.

     Dense  grid:     8441 G-vectors     FFT dimensions: (  30,  30,  30)

     Estimated max dynamical RAM per process >      15.73 MB

     Estimated total dynamical RAM >     125.86 MB
     Generating pointlists ...
     new r_m :   0.2917 (alat units)  1.9397 (a.u.) for type    1

     Initial potential from superposition of free atoms

     starting charge       9.9998, renormalised to      10.0000

 ==============================================================================
     atom number    1 relative position :    0.0000   0.0000   0.0000
     charge :     8.711618  (integrated on a sphere of radius 0.292)
     magnetization :          0.000000    0.000000    6.098132
     magnetization/charge:    0.000000    0.000000    0.700000
     polar coord.: r, theta, phi [deg] :     6.098132    0.000000  360.000000

 ==============================================================================
     Starting wfcs are   18 randomized atomic wfcs +    2 random wfcs

     total cpu time spent up to now is        0.4 secs

     Self-consistent Calculation

     iteration #  1     ecut=    90.00 Ry     beta= 0.70
     Davidson diagonalization with overlap
     ethr =  1.00E-02,  avg # of iterations =  7.0

     total cpu time spent up to now is        2.0 secs

     total energy              =     -78.04581126 Ry
     estimated scf accuracy    <       0.44065212 Ry

     total magnetization       =    -0.00    -0.00     1.83 Bohr mag/cell
     absolute magnetization    =     1.85 Bohr mag/cell

     iteration #  2     ecut=    90.00 Ry     beta= 0.70
     Davidson diagonalization with overlap
     ethr =  4.41E-03,  avg # of iterations =  2.0

     total cpu time spent up to now is        2.9 secs

     total energy              =     -78.10763827 Ry
     estimated scf accuracy    <       0.28781304 Ry

     total magnetization       =     0.00    -0.00     1.03 Bohr mag/cell
     absolute magnetization    =     1.19 Bohr mag/cell

     iteration #  3     ecut=    90.00 Ry     beta= 0.70
     Davidson diagonalization with overlap
     ethr =  2.88E-03,  avg # of iterations =  1.7

     total cpu time spent up to now is        3.8 secs

     total energy              =     -78.18087058 Ry
     estimated scf accuracy    <       0.06784105 Ry

     total magnetization       =    -0.00    -0.00     1.15 Bohr mag/cell
     absolute magnetization    =     1.32 Bohr mag/cell

     iteration #  4     ecut=    90.00 Ry     beta= 0.70
     Davidson diagonalization with overlap
     ethr =  6.78E-04,  avg # of iterations =  1.9

     total cpu time spent up to now is        4.7 secs

     total energy              =     -78.19800026 Ry
     estimated scf accuracy    <       0.00079736 Ry

     total magnetization       =    -0.00    -0.00     0.77 Bohr mag/cell
     absolute magnetization    =     0.96 Bohr mag/cell

     iteration #  5     ecut=    90.00 Ry     beta= 0.70
     Davidson diagonalization with overlap
     ethr =  7.97E-06,  avg # of iterations =  7.4

     total cpu time spent up to now is        6.5 secs

     total energy              =     -78.19873824 Ry
     estimated scf accuracy    <       0.00008216 Ry

     total magnetization       =    -0.00     0.00     0.73 Bohr mag/cell
     absolute magnetization    =     0.87 Bohr mag/cell

     iteration #  6     ecut=    90.00 Ry     beta= 0.70
     Davidson diagonalization with overlap
     ethr =  8.22E-07,  avg # of iterations =  3.6

     total cpu time spent up to now is        7.8 secs

     total energy              =     -78.19879676 Ry
     estimated scf accuracy    <       0.00001046 Ry

     total magnetization       =     0.00     0.00     0.73 Bohr mag/cell
     absolute magnetization    =     0.85 Bohr mag/cell

     iteration #  7     ecut=    90.00 Ry     beta= 0.70
     Davidson diagonalization with overlap
     ethr =  1.05E-07,  avg # of iterations =  3.7

     total cpu time spent up to now is        9.0 secs

     total energy              =     -78.19880603 Ry
     estimated scf accuracy    <       0.00000020 Ry

     total magnetization       =    -0.00     0.00     0.72 Bohr mag/cell
     absolute magnetization    =     0.84 Bohr mag/cell

     iteration #  8     ecut=    90.00 Ry     beta= 0.70
     Davidson diagonalization with overlap
     ethr =  2.00E-09,  avg # of iterations =  7.5

     total cpu time spent up to now is       11.1 secs

     total energy              =     -78.19880630 Ry
     estimated scf accuracy    <       0.00000015 Ry

     total magnetization       =     0.00     0.00     0.72 Bohr mag/cell
     absolute magnetization    =     0.84 Bohr mag/cell

     iteration #  9     ecut=    90.00 Ry     beta= 0.70
     Davidson diagonalization with overlap
     ethr =  1.53E-09,  avg # of iterations =  2.0

 ==============================================================================
     atom number    1 relative position :    0.0000   0.0000   0.0000
     charge :     8.718629  (integrated on a sphere of radius 0.292)
     magnetization :         -0.000000    0.000000    0.769082
     magnetization/charge:   -0.000000    0.000000    0.088211
     polar coord.: r, theta, phi [deg] :     0.769082    0.000000  360.000000

 ==============================================================================

     total cpu time spent up to now is       12.1 secs

     End of self-consistent calculation

     Number of k-points >= 100: set verbosity='high' to print the bands.

     the Fermi energy is    13.8870 ev

!    total energy              =     -78.19880637 Ry
     estimated scf accuracy    <          2.5E-09 Ry
     smearing contrib. (-TS)   =      -0.00045950 Ry
     internal energy E=F+TS    =     -78.19834687 Ry

     The total energy is F=E-TS. E is the sum of the following terms:
     one-electron contribution =      -5.03102955 Ry
     hartree contribution      =      15.82613677 Ry
     xc contribution           =     -20.04815975 Ry
     ewald contribution        =     -68.94529435 Ry

     total magnetization       =     0.00    -0.00     0.72 Bohr mag/cell
     absolute magnetization    =     0.84 Bohr mag/cell

     convergence has been achieved in   9 iterations

     Forces acting on atoms (cartesian axes, Ry/au):

     atom    1 type  1   force =     0.00000000    0.00000000    0.00000000

     Total force =     0.000000     Total SCF correction =     0.000000


     Computing stress (Cartesian axis) and pressure

          total   stress  (Ry/bohr**3)                   (kbar)     P=     -166.44
  -0.00113107  -0.00000000   0.00000000         -166.39       -0.00        0.00
  -0.00000000  -0.00113107  -0.00000000           -0.00     -166.39       -0.00
   0.00000000   0.00000000  -0.00113209            0.00        0.00     -166.54


     Writing all to output data dir ./Ni.save/ :
     XML data file, charge density, pseudopotentials, collected wavefunctions

     init_run     :      0.32s CPU      0.36s WALL (       1 calls)
     electrons    :     10.89s CPU     11.71s WALL (       1 calls)
     forces       :      0.08s CPU      0.08s WALL (       1 calls)
     stress       :      0.36s CPU      0.37s WALL (       1 calls)

     Called by init_run:
     wfcinit      :      0.30s CPU      0.33s WALL (       1 calls)
     potinit      :      0.00s CPU      0.00s WALL (       1 calls)
     hinit0       :      0.01s CPU      0.01s WALL (       1 calls)

     Called by electrons:
     c_bands      :      9.71s CPU     10.39s WALL (       9 calls)
     sum_band     :      1.16s CPU      1.30s WALL (       9 calls)
     v_of_rho     :      0.00s CPU      0.00s WALL (      10 calls)
     mix_rho      :      0.01s CPU      0.01s WALL (       9 calls)

     Called by c_bands:
     init_us_2    :      0.07s CPU      0.07s WALL (    3024 calls)
     cegterg      :      9.42s CPU     10.08s WALL (    1296 calls)

     Called by *egterg:
     cdiaghg      :      1.34s CPU      1.43s WALL (    6578 calls)
     h_psi        :      7.35s CPU      7.89s WALL (    6722 calls)
     g_psi        :      0.07s CPU      0.08s WALL (    5282 calls)

     Called by h_psi:
     h_psi:calbec :      0.23s CPU      0.25s WALL (    6722 calls)
     vloc_psi     :      6.86s CPU      7.35s WALL (    6722 calls)
     add_vuspsi   :      0.22s CPU      0.24s WALL (    6722 calls)

     General routines
     calbec       :      0.31s CPU      0.33s WALL (    9170 calls)
     fft          :      0.00s CPU      0.00s WALL (      94 calls)
     ffts         :      0.00s CPU      0.00s WALL (      36 calls)
     fftw         :      6.27s CPU      6.76s WALL (  371028 calls)

     Parallel routines

     PWSCF        :     11.75s CPU     12.72s WALL


   This run was terminated on:  14:58:50   4Sep2025            

=------------------------------------------------------------------------------=
   JOB DONE.
=------------------------------------------------------------------------------=
