
     Program PWSCF v.7.4.1 starts on  4Sep2025 at 15: 9:55 

     This program is part of the open-source Quantum ESPRESSO suite
     for quantum simulation of materials; please cite
         "P. Giannozzi et al., J. Phys.:Condens. Matter 21 395502 (2009);
         "P. Giannozzi et al., J. Phys.:Condens. Matter 29 465901 (2017);
         "P. Giannozzi et al., J. Chem. Phys. 152 154105 (2020);
          URL http://www.quantum-espresso.org", 
     in publications or presentations arising from this work. More details at
     http://www.quantum-espresso.org/quote

     Parallel version (MPI & OpenMP), running on       8 processor cores
     Number of MPI processes:                 8
     Threads/MPI process:                     1

     MPI processes distributed on     1 nodes
     35858 MiB available memory on the printing compute node when the environment starts

     Waiting for input...
     Reading input from standard input

     Current dimensions of program PWSCF are:
     Max number of different atomic species (ntypx) = 10
     Max number of k-points (npk) =  40000
     Max angular momentum in pseudopotentials (lmaxx) =  4

     R & G space division:  proc/nbgrp/npool/nimage =       8
     Subspace diagonalization in iterative solution of the eigenvalue problem:
     a serial algorithm will be used


     Parallelization info
     --------------------
     sticks:   dense  smooth     PW     G-vecs:    dense   smooth      PW
     Min          72      72     20                 7072     7072    1132
     Max          74      74     21                 7080     7080    1155
     Sum         583     583    163                56613    56613    9123

     Using Slab Decomposition



     bravais-lattice index     =            4
     lattice parameter (alat)  =       5.8772  a.u.
     unit-cell volume          =     897.4163 (a.u.)^3
     number of atoms/cell      =            3
     number of atomic types    =            2
     number of electrons       =        26.00
     number of Kohn-Sham states=           26
     kinetic-energy cutoff     =      60.0000  Ry
     charge density cutoff     =     240.0000  Ry
     scf convergence threshold =      1.0E-12
     mixing beta               =       0.7000
     number of iterations used =            8  plain     mixing
     Exchange-correlation= SLA-PZ-NOGX-NOGC
                           (   1   1   0   0   0   0   0)
     Non magnetic calculation with spin-orbit


     celldm(1)=   5.877208  celldm(2)=   0.000000  celldm(3)=   5.104465
     celldm(4)=   0.000000  celldm(5)=   0.000000  celldm(6)=   0.000000

     crystal axes: (cart. coord. in units of alat)
               a(1) = (   1.000000   0.000000   0.000000 )  
               a(2) = (  -0.500000   0.866025   0.000000 )  
               a(3) = (   0.000000   0.000000   5.104465 )  

     reciprocal axes: (cart. coord. in units 2 pi/alat)
               b(1) = (  1.000000  0.577350 -0.000000 )  
               b(2) = (  0.000000  1.154701  0.000000 )  
               b(3) = (  0.000000 -0.000000  0.195907 )  


     PseudoPot. # 1 for Mo read from file:
     ./Mo_RL_withPS_PZ.UPF
     MD5 check sum: 75fa0bd84f1d166fc7323d3ac6c2f396
     Pseudo is Norm-conserving + core correction, Zval = 14.0
     Generated using "atomic" code by A. Dal Corso  (Quantum ESPRESSO distribution)
     Using radial grid of 1229 points,  8 beta functions with: 
                l(1) =   0
                l(2) =   0
                l(3) =   1
                l(4) =   1
                l(5) =   2
                l(6) =   2
                l(7) =   2
                l(8) =   2

     PseudoPot. # 2 for S  read from file:
     ./S.pz-hgh.UPF
     MD5 check sum: fb24c143a2a3ea3aba309d3cb9e9e6ec
     Pseudo is Norm-conserving, Zval =  6.0
     Generated in analytical, separable form
     Using radial grid of 1151 points,  3 beta functions with: 
                l(1) =   0
                l(2) =   0
                l(3) =   1

     atomic species   valence    mass     pseudopotential
     Mo               14.00    95.94000     Mo( 1.00)
     S                 6.00    32.06500     S ( 1.00)

     12 Sym. Ops. (no inversion) found


                                    s                        frac. trans.

      isym =  1     identity                                     

 cryst.   s( 1) = (     1          0          0      )
                  (     0          1          0      )
                  (     0          0          1      )

 cart.    s( 1) = (  1.0000000  0.0000000  0.0000000 )
                  (  0.0000000  1.0000000  0.0000000 )
                  (  0.0000000  0.0000000  1.0000000 )


      isym =  2     180 deg rotation - cart. axis [0,1,0]        

 cryst.   s( 2) = (    -1          0          0      )
                  (     1          1          0      )
                  (     0          0         -1      )

 cart.    s( 2) = ( -1.0000000  0.0000000  0.0000000 )
                  (  0.0000000  1.0000000  0.0000000 )
                  (  0.0000000  0.0000000 -1.0000000 )


      isym =  3     120 deg rotation - cryst. axis [0,0,1]       

 cryst.   s( 3) = (     0          1          0      )
                  (    -1         -1          0      )
                  (     0          0          1      )

 cart.    s( 3) = ( -0.5000000 -0.8660254  0.0000000 )
                  (  0.8660254 -0.5000000  0.0000000 )
                  (  0.0000000  0.0000000  1.0000000 )


      isym =  4     120 deg rotation - cryst. axis [0,0,-1]      

 cryst.   s( 4) = (    -1         -1          0      )
                  (     1          0          0      )
                  (     0          0          1      )

 cart.    s( 4) = ( -0.5000000  0.8660254  0.0000000 )
                  ( -0.8660254 -0.5000000  0.0000000 )
                  (  0.0000000  0.0000000  1.0000000 )


      isym =  5     180 deg rotation - cryst. axis [1,-1,0]      

 cryst.   s( 5) = (     0         -1          0      )
                  (    -1          0          0      )
                  (     0          0         -1      )

 cart.    s( 5) = (  0.5000000 -0.8660254  0.0000000 )
                  ( -0.8660254 -0.5000000  0.0000000 )
                  (  0.0000000  0.0000000 -1.0000000 )


      isym =  6     180 deg rotation - cryst. axis [2,1,0]       

 cryst.   s( 6) = (     1          1          0      )
                  (     0         -1          0      )
                  (     0          0         -1      )

 cart.    s( 6) = (  0.5000000  0.8660254  0.0000000 )
                  (  0.8660254 -0.5000000  0.0000000 )
                  (  0.0000000  0.0000000 -1.0000000 )


      isym =  7     inv. 180 deg rotation - cart. axis [0,0,1]   

 cryst.   s( 7) = (     1          0          0      )
                  (     0          1          0      )
                  (     0          0         -1      )

 cart.    s( 7) = (  1.0000000  0.0000000  0.0000000 )
                  (  0.0000000  1.0000000  0.0000000 )
                  (  0.0000000  0.0000000 -1.0000000 )


      isym =  8     inv. 180 deg rotation - cart. axis [1,0,0]   

 cryst.   s( 8) = (    -1          0          0      )
                  (     1          1          0      )
                  (     0          0          1      )

 cart.    s( 8) = ( -1.0000000  0.0000000  0.0000000 )
                  (  0.0000000  1.0000000  0.0000000 )
                  (  0.0000000  0.0000000  1.0000000 )


      isym =  9     inv.  60 deg rotation - cryst. axis [0,0,1]  

 cryst.   s( 9) = (    -1         -1          0      )
                  (     1          0          0      )
                  (     0          0         -1      )

 cart.    s( 9) = ( -0.5000000  0.8660254  0.0000000 )
                  ( -0.8660254 -0.5000000  0.0000000 )
                  (  0.0000000  0.0000000 -1.0000000 )


      isym = 10     inv.  60 deg rotation - cryst. axis [0,0,-1] 

 cryst.   s(10) = (     0          1          0      )
                  (    -1         -1          0      )
                  (     0          0         -1      )

 cart.    s(10) = ( -0.5000000 -0.8660254  0.0000000 )
                  (  0.8660254 -0.5000000  0.0000000 )
                  (  0.0000000  0.0000000 -1.0000000 )


      isym = 11     inv. 180 deg rotation - cryst. axis [0,1,0]  

 cryst.   s(11) = (     1          1          0      )
                  (     0         -1          0      )
                  (     0          0          1      )

 cart.    s(11) = (  0.5000000  0.8660254  0.0000000 )
                  (  0.8660254 -0.5000000  0.0000000 )
                  (  0.0000000  0.0000000  1.0000000 )


      isym = 12     inv. 180 deg rotation - cryst. axis [1,1,0]  

 cryst.   s(12) = (     0         -1          0      )
                  (    -1          0          0      )
                  (     0          0          1      )

 cart.    s(12) = (  0.5000000 -0.8660254  0.0000000 )
                  ( -0.8660254 -0.5000000  0.0000000 )
                  (  0.0000000  0.0000000  1.0000000 )


     double point group D_3h (-62m)
     there are  9 classes and  3 irreducible representations
     the character table:

       E     -E    2C3   -2C3   3C2'  s_h  2S3   -2S3   3s_v
                               -3C2' -s_h'             -3s_v
G_7    2.00 -2.00  1.00 -1.00  0.00  0.00  1.73 -1.73  0.00
G_8    2.00 -2.00  1.00 -1.00  0.00  0.00 -1.73  1.73  0.00
G_9    2.00 -2.00 -2.00  2.00  0.00  0.00  0.00  0.00  0.00

     the symmetry operations in each class and the name of the first element:

     E             1
          identity                                               
     -E           -1
          identity E                                             
     2C3           3    4
          120 deg rotation - cryst. axis [0,0,1]                 
     -2C3         -3   -4
          120 deg rotation - cryst. axis [0,0,1] E               
      3C2'-3C2'    2   -6    5   -2   -5    6
          180 deg rotation - cart. axis [0,1,0]                  
      s_h -s_h'    7   -7
          inv. 180 deg rotation - cart. axis [0,0,1]             
     2S3           9   10
          inv.  60 deg rotation - cryst. axis [0,0,1]            
     -2S3         -9  -10
          inv.  60 deg rotation - cryst. axis [0,0,1] E          
      3s_v-3s_v    8   -8  -11  -12   11   12
          inv. 180 deg rotation - cart. axis [1,0,0]             

   Cartesian axes

     site n.     atom                  positions (alat units)
         1        Mo     tau(   1) = (  -0.0000000   0.5773503   0.0000000  )
         2        S      tau(   2) = (   0.5000000   0.2886751   0.4991315  )
         3        S      tau(   3) = (   0.5000000   0.2886751  -0.4991315  )

   Crystallographic axes

     site n.     atom                  positions (cryst. coord.)
         1        Mo     tau(   1) = (  0.3333333  0.6666667  0.0000000  )
         2        S      tau(   2) = (  0.6666667  0.3333333  0.0977833  )
         3        S      tau(   3) = (  0.6666667  0.3333333 -0.0977833  )

     number of k points=     3
                       cart. coord. in units 2pi/alat
        k(    1) = (   0.0000000   0.0000000   0.0000000), wk =   0.1111111
        k(    2) = (   0.0000000   0.3849002   0.0000000), wk =   0.6666667
        k(    3) = (   0.3333333   0.5773503   0.0000000), wk =   0.2222222

                       cryst. coord.
        k(    1) = (   0.0000000   0.0000000   0.0000000), wk =   0.1111111
        k(    2) = (   0.0000000   0.3333333   0.0000000), wk =   0.6666667
        k(    3) = (   0.3333333   0.3333333   0.0000000), wk =   0.2222222

     Dense  grid:    56613 G-vectors     FFT dimensions: (  30,  30, 150)

     Dynamical RAM for                 wfc:       0.70 MB

     Dynamical RAM for     wfc (w. buffer):       2.79 MB

     Dynamical RAM for           str. fact:       0.22 MB

     Dynamical RAM for           local pot:       0.00 MB

     Dynamical RAM for          nlocal pot:       0.51 MB

     Dynamical RAM for                qrad:       4.27 MB

     Dynamical RAM for          rho,v,vnew:       2.86 MB

     Dynamical RAM for               rhoin:       0.95 MB

     Dynamical RAM for            rho*nmix:       6.91 MB

     Dynamical RAM for           G-vectors:       0.46 MB

     Dynamical RAM for          h,s,v(r/c):       0.12 MB

     Dynamical RAM for          <psi|beta>:       0.03 MB

     Dynamical RAM for                 psi:       1.40 MB

     Dynamical RAM for                hpsi:       1.40 MB

     Dynamical RAM for      wfcinit/wfcrot:       1.06 MB

     Estimated static dynamical RAM per process >      13.43 MB

     Estimated max dynamical RAM per process >      23.29 MB

     Estimated total dynamical RAM >     186.31 MB

     Check: negative core charge=   -0.000110

     Initial potential from superposition of free atoms

     starting charge      23.9990, renormalised to      26.0000

     negative rho (up, down):  1.264E-03 0.000E+00
     Starting wfcs are   56 randomized atomic wfcs

     total cpu time spent up to now is        0.2 secs

     Self-consistent Calculation

     iteration #  1     ecut=    60.00 Ry     beta= 0.70
     Davidson diagonalization with overlap

---- Real-time Memory Report at c_bands before calling an iterative solver
            55 MiB given to the printing process from OS
             0 MiB allocation reported by mallinfo(arena+hblkhd)
         35705 MiB available memory on the node where the printing process lives
------------------
     ethr =  1.00E-02,  avg # of iterations =  2.7

     negative rho (up, down):  2.364E-07 0.000E+00

     total cpu time spent up to now is        0.4 secs

     total energy              =    -228.99141713 Ry
     estimated scf accuracy    <      12.45100257 Ry

     iteration #  2     ecut=    60.00 Ry     beta= 0.70
     Davidson diagonalization with overlap

---- Real-time Memory Report at c_bands before calling an iterative solver
            63 MiB given to the printing process from OS
             0 MiB allocation reported by mallinfo(arena+hblkhd)
         35643 MiB available memory on the node where the printing process lives
------------------
     ethr =  1.00E-02,  avg # of iterations = 12.0

     negative rho (up, down):  1.555E-07 0.000E+00

     total cpu time spent up to now is        0.9 secs

     total energy              =    -231.26578548 Ry
     estimated scf accuracy    <      60.37107649 Ry

     iteration #  3     ecut=    60.00 Ry     beta= 0.70
     Davidson diagonalization with overlap

---- Real-time Memory Report at c_bands before calling an iterative solver
            64 MiB given to the printing process from OS
             0 MiB allocation reported by mallinfo(arena+hblkhd)
         35640 MiB available memory on the node where the printing process lives
------------------
     ethr =  1.00E-02,  avg # of iterations =  7.3

     negative rho (up, down):  9.579E-08 0.000E+00

     total cpu time spent up to now is        1.2 secs

     total energy              =    -237.07308638 Ry
     estimated scf accuracy    <       1.38779448 Ry

     iteration #  4     ecut=    60.00 Ry     beta= 0.70
     Davidson diagonalization with overlap

---- Real-time Memory Report at c_bands before calling an iterative solver
            65 MiB given to the printing process from OS
             0 MiB allocation reported by mallinfo(arena+hblkhd)
         35634 MiB available memory on the node where the printing process lives
------------------
     ethr =  5.34E-03,  avg # of iterations =  3.3

     total cpu time spent up to now is        1.3 secs

     total energy              =    -236.91665390 Ry
     estimated scf accuracy    <       0.62770411 Ry

     iteration #  5     ecut=    60.00 Ry     beta= 0.70
     Davidson diagonalization with overlap

---- Real-time Memory Report at c_bands before calling an iterative solver
            66 MiB given to the printing process from OS
             0 MiB allocation reported by mallinfo(arena+hblkhd)
         35627 MiB available memory on the node where the printing process lives
------------------
     ethr =  2.41E-03,  avg # of iterations =  6.0

     total cpu time spent up to now is        1.5 secs

     total energy              =    -237.27830377 Ry
     estimated scf accuracy    <       0.08483710 Ry

     iteration #  6     ecut=    60.00 Ry     beta= 0.70
     Davidson diagonalization with overlap

---- Real-time Memory Report at c_bands before calling an iterative solver
            67 MiB given to the printing process from OS
             0 MiB allocation reported by mallinfo(arena+hblkhd)
         35620 MiB available memory on the node where the printing process lives
------------------
     ethr =  3.26E-04,  avg # of iterations =  3.3

     negative rho (up, down):  1.516E-08 0.000E+00

     total cpu time spent up to now is        1.7 secs

     total energy              =    -237.26119250 Ry
     estimated scf accuracy    <       0.06872084 Ry

     iteration #  7     ecut=    60.00 Ry     beta= 0.70
     Davidson diagonalization with overlap

---- Real-time Memory Report at c_bands before calling an iterative solver
            68 MiB given to the printing process from OS
             0 MiB allocation reported by mallinfo(arena+hblkhd)
         35613 MiB available memory on the node where the printing process lives
------------------
     ethr =  2.64E-04,  avg # of iterations =  5.0

     negative rho (up, down):  1.275E-04 0.000E+00

     total cpu time spent up to now is        1.9 secs

     total energy              =    -237.28234778 Ry
     estimated scf accuracy    <       0.03561400 Ry

     iteration #  8     ecut=    60.00 Ry     beta= 0.70
     Davidson diagonalization with overlap

---- Real-time Memory Report at c_bands before calling an iterative solver
            68 MiB given to the printing process from OS
             0 MiB allocation reported by mallinfo(arena+hblkhd)
         35603 MiB available memory on the node where the printing process lives
------------------
     ethr =  1.37E-04,  avg # of iterations =  2.0

     total cpu time spent up to now is        2.1 secs

     total energy              =    -237.27579386 Ry
     estimated scf accuracy    <       0.02704204 Ry

     iteration #  9     ecut=    60.00 Ry     beta= 0.70
     Davidson diagonalization with overlap

---- Real-time Memory Report at c_bands before calling an iterative solver
            69 MiB given to the printing process from OS
             0 MiB allocation reported by mallinfo(arena+hblkhd)
         35596 MiB available memory on the node where the printing process lives
------------------
     ethr =  1.04E-04,  avg # of iterations =  3.0

     total cpu time spent up to now is        2.3 secs

     total energy              =    -237.27934775 Ry
     estimated scf accuracy    <       0.00126759 Ry

     iteration # 10     ecut=    60.00 Ry     beta= 0.70
     Davidson diagonalization with overlap

---- Real-time Memory Report at c_bands before calling an iterative solver
            70 MiB given to the printing process from OS
             0 MiB allocation reported by mallinfo(arena+hblkhd)
         35590 MiB available memory on the node where the printing process lives
------------------
     ethr =  4.88E-06,  avg # of iterations =  5.3

     total cpu time spent up to now is        2.5 secs

     total energy              =    -237.27987650 Ry
     estimated scf accuracy    <       0.00025193 Ry

     iteration # 11     ecut=    60.00 Ry     beta= 0.70
     Davidson diagonalization with overlap

---- Real-time Memory Report at c_bands before calling an iterative solver
            70 MiB given to the printing process from OS
             0 MiB allocation reported by mallinfo(arena+hblkhd)
         35589 MiB available memory on the node where the printing process lives
------------------
     ethr =  9.69E-07,  avg # of iterations =  4.7

     total cpu time spent up to now is        2.7 secs

     total energy              =    -237.28028564 Ry
     estimated scf accuracy    <       0.00023697 Ry

     iteration # 12     ecut=    60.00 Ry     beta= 0.70
     Davidson diagonalization with overlap

---- Real-time Memory Report at c_bands before calling an iterative solver
            70 MiB given to the printing process from OS
             0 MiB allocation reported by mallinfo(arena+hblkhd)
         35569 MiB available memory on the node where the printing process lives
------------------
     ethr =  9.11E-07,  avg # of iterations =  6.3

     total cpu time spent up to now is        3.0 secs

     total energy              =    -237.28159508 Ry
     estimated scf accuracy    <       0.00833037 Ry

     iteration # 13     ecut=    60.00 Ry     beta= 0.70
     Davidson diagonalization with overlap

---- Real-time Memory Report at c_bands before calling an iterative solver
            70 MiB given to the printing process from OS
             0 MiB allocation reported by mallinfo(arena+hblkhd)
         35590 MiB available memory on the node where the printing process lives
------------------
     ethr =  9.11E-07,  avg # of iterations =  5.3

     total cpu time spent up to now is        3.3 secs

     total energy              =    -237.28034368 Ry
     estimated scf accuracy    <       0.01245746 Ry

     iteration # 14     ecut=    60.00 Ry     beta= 0.70
     Davidson diagonalization with overlap

---- Real-time Memory Report at c_bands before calling an iterative solver
            70 MiB given to the printing process from OS
             0 MiB allocation reported by mallinfo(arena+hblkhd)
         35590 MiB available memory on the node where the printing process lives
------------------
     ethr =  9.11E-07,  avg # of iterations =  4.7

     total cpu time spent up to now is        3.5 secs

     total energy              =    -237.27998677 Ry
     estimated scf accuracy    <       0.00591971 Ry

     iteration # 15     ecut=    60.00 Ry     beta= 0.70
     Davidson diagonalization with overlap

---- Real-time Memory Report at c_bands before calling an iterative solver
            70 MiB given to the printing process from OS
             0 MiB allocation reported by mallinfo(arena+hblkhd)
         35590 MiB available memory on the node where the printing process lives
------------------
     ethr =  9.11E-07,  avg # of iterations =  6.0

     total cpu time spent up to now is        3.7 secs

     total energy              =    -237.27997489 Ry
     estimated scf accuracy    <       0.00254608 Ry

     iteration # 16     ecut=    60.00 Ry     beta= 0.70
     Davidson diagonalization with overlap

---- Real-time Memory Report at c_bands before calling an iterative solver
            70 MiB given to the printing process from OS
             0 MiB allocation reported by mallinfo(arena+hblkhd)
         35587 MiB available memory on the node where the printing process lives
------------------
     ethr =  9.11E-07,  avg # of iterations =  2.0

     total cpu time spent up to now is        3.9 secs

     total energy              =    -237.27991431 Ry
     estimated scf accuracy    <       0.00185726 Ry

     iteration # 17     ecut=    60.00 Ry     beta= 0.70
     Davidson diagonalization with overlap

---- Real-time Memory Report at c_bands before calling an iterative solver
            70 MiB given to the printing process from OS
             0 MiB allocation reported by mallinfo(arena+hblkhd)
         35587 MiB available memory on the node where the printing process lives
------------------
     ethr =  9.11E-07,  avg # of iterations =  4.0

     total cpu time spent up to now is        4.1 secs

     total energy              =    -237.28003678 Ry
     estimated scf accuracy    <       0.00092482 Ry

     iteration # 18     ecut=    60.00 Ry     beta= 0.70
     Davidson diagonalization with overlap

---- Real-time Memory Report at c_bands before calling an iterative solver
            70 MiB given to the printing process from OS
             0 MiB allocation reported by mallinfo(arena+hblkhd)
         35586 MiB available memory on the node where the printing process lives
------------------
     ethr =  9.11E-07,  avg # of iterations =  1.0

     total cpu time spent up to now is        4.2 secs

     total energy              =    -237.27984780 Ry
     estimated scf accuracy    <       0.00111432 Ry

     iteration # 19     ecut=    60.00 Ry     beta= 0.70
     Davidson diagonalization with overlap

---- Real-time Memory Report at c_bands before calling an iterative solver
            70 MiB given to the printing process from OS
             0 MiB allocation reported by mallinfo(arena+hblkhd)
         35586 MiB available memory on the node where the printing process lives
------------------
     ethr =  9.11E-07,  avg # of iterations =  3.7

     total cpu time spent up to now is        4.4 secs

     total energy              =    -237.27983123 Ry
     estimated scf accuracy    <       0.00029789 Ry

     iteration # 20     ecut=    60.00 Ry     beta= 0.70
     Davidson diagonalization with overlap

---- Real-time Memory Report at c_bands before calling an iterative solver
            70 MiB given to the printing process from OS
             0 MiB allocation reported by mallinfo(arena+hblkhd)
         35587 MiB available memory on the node where the printing process lives
------------------
     ethr =  9.11E-07,  avg # of iterations =  4.0

     total cpu time spent up to now is        4.6 secs

     total energy              =    -237.27986939 Ry
     estimated scf accuracy    <       0.00003365 Ry

     iteration # 21     ecut=    60.00 Ry     beta= 0.70
     Davidson diagonalization with overlap

---- Real-time Memory Report at c_bands before calling an iterative solver
            70 MiB given to the printing process from OS
             0 MiB allocation reported by mallinfo(arena+hblkhd)
         35586 MiB available memory on the node where the printing process lives
------------------
     ethr =  1.29E-07,  avg # of iterations =  5.3

     total cpu time spent up to now is        4.8 secs

     total energy              =    -237.27988076 Ry
     estimated scf accuracy    <       0.00000172 Ry

     iteration # 22     ecut=    60.00 Ry     beta= 0.70
     Davidson diagonalization with overlap

---- Real-time Memory Report at c_bands before calling an iterative solver
            70 MiB given to the printing process from OS
             0 MiB allocation reported by mallinfo(arena+hblkhd)
         35544 MiB available memory on the node where the printing process lives
------------------
     ethr =  6.63E-09,  avg # of iterations =  6.3

     total cpu time spent up to now is        5.1 secs

     total energy              =    -237.27988228 Ry
     estimated scf accuracy    <       0.00000159 Ry

     iteration # 23     ecut=    60.00 Ry     beta= 0.70
     Davidson diagonalization with overlap

---- Real-time Memory Report at c_bands before calling an iterative solver
            70 MiB given to the printing process from OS
             0 MiB allocation reported by mallinfo(arena+hblkhd)
         35559 MiB available memory on the node where the printing process lives
------------------
     ethr =  6.13E-09,  avg # of iterations =  1.7

     total cpu time spent up to now is        5.2 secs

     total energy              =    -237.27988186 Ry
     estimated scf accuracy    <       0.00000235 Ry

     iteration # 24     ecut=    60.00 Ry     beta= 0.70
     Davidson diagonalization with overlap

---- Real-time Memory Report at c_bands before calling an iterative solver
            70 MiB given to the printing process from OS
             0 MiB allocation reported by mallinfo(arena+hblkhd)
         35559 MiB available memory on the node where the printing process lives
------------------
     ethr =  6.13E-09,  avg # of iterations =  1.7

     total cpu time spent up to now is        5.4 secs

     total energy              =    -237.27988164 Ry
     estimated scf accuracy    <       0.00000110 Ry

     iteration # 25     ecut=    60.00 Ry     beta= 0.70
     Davidson diagonalization with overlap

---- Real-time Memory Report at c_bands before calling an iterative solver
            70 MiB given to the printing process from OS
             0 MiB allocation reported by mallinfo(arena+hblkhd)
         35559 MiB available memory on the node where the printing process lives
------------------
     ethr =  4.21E-09,  avg # of iterations =  4.7

     total cpu time spent up to now is        5.6 secs

     total energy              =    -237.27988189 Ry
     estimated scf accuracy    <       0.00000013 Ry

     iteration # 26     ecut=    60.00 Ry     beta= 0.70
     Davidson diagonalization with overlap

---- Real-time Memory Report at c_bands before calling an iterative solver
            70 MiB given to the printing process from OS
             0 MiB allocation reported by mallinfo(arena+hblkhd)
         35559 MiB available memory on the node where the printing process lives
------------------
     ethr =  4.95E-10,  avg # of iterations =  8.3

     total cpu time spent up to now is        5.9 secs

     total energy              =    -237.27988152 Ry
     estimated scf accuracy    <       0.00000543 Ry

     iteration # 27     ecut=    60.00 Ry     beta= 0.70
     Davidson diagonalization with overlap

---- Real-time Memory Report at c_bands before calling an iterative solver
            70 MiB given to the printing process from OS
             0 MiB allocation reported by mallinfo(arena+hblkhd)
         35559 MiB available memory on the node where the printing process lives
------------------
     ethr =  4.95E-10,  avg # of iterations =  6.3

     total cpu time spent up to now is        6.2 secs

     total energy              =    -237.27988172 Ry
     estimated scf accuracy    <       0.00000051 Ry

     iteration # 28     ecut=    60.00 Ry     beta= 0.70
     Davidson diagonalization with overlap

---- Real-time Memory Report at c_bands before calling an iterative solver
            70 MiB given to the printing process from OS
             0 MiB allocation reported by mallinfo(arena+hblkhd)
         35558 MiB available memory on the node where the printing process lives
------------------
     ethr =  4.95E-10,  avg # of iterations =  6.0

     total cpu time spent up to now is        6.4 secs

     total energy              =    -237.27988180 Ry
     estimated scf accuracy    <          4.9E-09 Ry

     iteration # 29     ecut=    60.00 Ry     beta= 0.70
     Davidson diagonalization with overlap

---- Real-time Memory Report at c_bands before calling an iterative solver
            70 MiB given to the printing process from OS
             0 MiB allocation reported by mallinfo(arena+hblkhd)
         35558 MiB available memory on the node where the printing process lives
------------------
     ethr =  1.87E-11,  avg # of iterations =  9.3

     total cpu time spent up to now is        6.8 secs

     total energy              =    -237.27988180 Ry
     estimated scf accuracy    <       0.00000009 Ry

     iteration # 30     ecut=    60.00 Ry     beta= 0.70
     Davidson diagonalization with overlap

---- Real-time Memory Report at c_bands before calling an iterative solver
            70 MiB given to the printing process from OS
             0 MiB allocation reported by mallinfo(arena+hblkhd)
         35558 MiB available memory on the node where the printing process lives
------------------
     ethr =  1.87E-11,  avg # of iterations =  5.3

     total cpu time spent up to now is        7.0 secs

     total energy              =    -237.27988179 Ry
     estimated scf accuracy    <       0.00000001 Ry

     iteration # 31     ecut=    60.00 Ry     beta= 0.70
     Davidson diagonalization with overlap

---- Real-time Memory Report at c_bands before calling an iterative solver
            70 MiB given to the printing process from OS
             0 MiB allocation reported by mallinfo(arena+hblkhd)
         35554 MiB available memory on the node where the printing process lives
------------------
     ethr =  1.87E-11,  avg # of iterations =  7.3

     total cpu time spent up to now is        7.3 secs

     total energy              =    -237.27988180 Ry
     estimated scf accuracy    <       0.00000011 Ry

     iteration # 32     ecut=    60.00 Ry     beta= 0.70
     Davidson diagonalization with overlap

---- Real-time Memory Report at c_bands before calling an iterative solver
            70 MiB given to the printing process from OS
             0 MiB allocation reported by mallinfo(arena+hblkhd)
         35558 MiB available memory on the node where the printing process lives
------------------
     ethr =  1.87E-11,  avg # of iterations =  5.3

     total cpu time spent up to now is        7.6 secs

     total energy              =    -237.27988180 Ry
     estimated scf accuracy    <       0.00000003 Ry

     iteration # 33     ecut=    60.00 Ry     beta= 0.70
     Davidson diagonalization with overlap

---- Real-time Memory Report at c_bands before calling an iterative solver
            70 MiB given to the printing process from OS
             0 MiB allocation reported by mallinfo(arena+hblkhd)
         35557 MiB available memory on the node where the printing process lives
------------------
     ethr =  1.87E-11,  avg # of iterations =  2.0

     total cpu time spent up to now is        7.7 secs

     total energy              =    -237.27988180 Ry
     estimated scf accuracy    <       0.00000002 Ry

     iteration # 34     ecut=    60.00 Ry     beta= 0.70
     Davidson diagonalization with overlap

---- Real-time Memory Report at c_bands before calling an iterative solver
            70 MiB given to the printing process from OS
             0 MiB allocation reported by mallinfo(arena+hblkhd)
         35557 MiB available memory on the node where the printing process lives
------------------
     ethr =  1.87E-11,  avg # of iterations =  5.0

     total cpu time spent up to now is        8.0 secs

     total energy              =    -237.27988180 Ry
     estimated scf accuracy    <          2.0E-11 Ry

     iteration # 35     ecut=    60.00 Ry     beta= 0.70
     Davidson diagonalization with overlap

---- Real-time Memory Report at c_bands before calling an iterative solver
            70 MiB given to the printing process from OS
             0 MiB allocation reported by mallinfo(arena+hblkhd)
         35557 MiB available memory on the node where the printing process lives
------------------
     ethr =  1.00E-13,  avg # of iterations = 11.0

     total cpu time spent up to now is        8.4 secs

     total energy              =    -237.27988180 Ry
     estimated scf accuracy    <          8.1E-10 Ry

     iteration # 36     ecut=    60.00 Ry     beta= 0.70
     Davidson diagonalization with overlap

---- Real-time Memory Report at c_bands before calling an iterative solver
            70 MiB given to the printing process from OS
             0 MiB allocation reported by mallinfo(arena+hblkhd)
         35558 MiB available memory on the node where the printing process lives
------------------
     ethr =  1.00E-13,  avg # of iterations =  4.7

     total cpu time spent up to now is        8.6 secs

     total energy              =    -237.27988180 Ry
     estimated scf accuracy    <          4.1E-10 Ry

     iteration # 37     ecut=    60.00 Ry     beta= 0.70
     Davidson diagonalization with overlap

---- Real-time Memory Report at c_bands before calling an iterative solver
            70 MiB given to the printing process from OS
             0 MiB allocation reported by mallinfo(arena+hblkhd)
         35558 MiB available memory on the node where the printing process lives
------------------
     ethr =  1.00E-13,  avg # of iterations =  7.0

     total cpu time spent up to now is        8.9 secs

     total energy              =    -237.27988180 Ry
     estimated scf accuracy    <          2.3E-11 Ry

     iteration # 38     ecut=    60.00 Ry     beta= 0.70
     Davidson diagonalization with overlap

---- Real-time Memory Report at c_bands before calling an iterative solver
            70 MiB given to the printing process from OS
             0 MiB allocation reported by mallinfo(arena+hblkhd)
         35557 MiB available memory on the node where the printing process lives
------------------
     ethr =  1.00E-13,  avg # of iterations =  1.0

     total cpu time spent up to now is        9.0 secs

     total energy              =    -237.27988180 Ry
     estimated scf accuracy    <          2.4E-11 Ry

     iteration # 39     ecut=    60.00 Ry     beta= 0.70
     Davidson diagonalization with overlap

---- Real-time Memory Report at c_bands before calling an iterative solver
            70 MiB given to the printing process from OS
             0 MiB allocation reported by mallinfo(arena+hblkhd)
         35547 MiB available memory on the node where the printing process lives
------------------
     ethr =  1.00E-13,  avg # of iterations =  1.3

     total cpu time spent up to now is        9.2 secs

     total energy              =    -237.27988180 Ry
     estimated scf accuracy    <          8.2E-12 Ry

     iteration # 40     ecut=    60.00 Ry     beta= 0.70
     Davidson diagonalization with overlap

---- Real-time Memory Report at c_bands before calling an iterative solver
            70 MiB given to the printing process from OS
             0 MiB allocation reported by mallinfo(arena+hblkhd)
         35553 MiB available memory on the node where the printing process lives
------------------
     ethr =  1.00E-13,  avg # of iterations =  1.0

     total cpu time spent up to now is        9.3 secs

     total energy              =    -237.27988180 Ry
     estimated scf accuracy    <          9.2E-12 Ry

     iteration # 41     ecut=    60.00 Ry     beta= 0.70
     Davidson diagonalization with overlap

---- Real-time Memory Report at c_bands before calling an iterative solver
            70 MiB given to the printing process from OS
             0 MiB allocation reported by mallinfo(arena+hblkhd)
         35553 MiB available memory on the node where the printing process lives
------------------
     ethr =  1.00E-13,  avg # of iterations =  1.0

     total cpu time spent up to now is        9.5 secs

     total energy              =    -237.27988180 Ry
     estimated scf accuracy    <          8.4E-12 Ry

     iteration # 42     ecut=    60.00 Ry     beta= 0.70
     Davidson diagonalization with overlap

---- Real-time Memory Report at c_bands before calling an iterative solver
            70 MiB given to the printing process from OS
             0 MiB allocation reported by mallinfo(arena+hblkhd)
         35553 MiB available memory on the node where the printing process lives
------------------
     ethr =  1.00E-13,  avg # of iterations =  1.0

     total cpu time spent up to now is        9.6 secs

     total energy              =    -237.27988180 Ry
     estimated scf accuracy    <          3.2E-12 Ry

     iteration # 43     ecut=    60.00 Ry     beta= 0.70
     Davidson diagonalization with overlap

---- Real-time Memory Report at c_bands before calling an iterative solver
            70 MiB given to the printing process from OS
             0 MiB allocation reported by mallinfo(arena+hblkhd)
         35553 MiB available memory on the node where the printing process lives
------------------
     ethr =  1.00E-13,  avg # of iterations =  1.0

     total cpu time spent up to now is        9.8 secs

     total energy              =    -237.27988180 Ry
     estimated scf accuracy    <          3.0E-12 Ry

     iteration # 44     ecut=    60.00 Ry     beta= 0.70
     Davidson diagonalization with overlap

---- Real-time Memory Report at c_bands before calling an iterative solver
            70 MiB given to the printing process from OS
             0 MiB allocation reported by mallinfo(arena+hblkhd)
         35553 MiB available memory on the node where the printing process lives
------------------
     ethr =  1.00E-13,  avg # of iterations =  1.0

     total cpu time spent up to now is        9.9 secs

     End of self-consistent calculation

          k = 0.0000 0.0000 0.0000 (  7087 PWs)   bands (ev):

   -59.8563 -59.8563 -35.9006 -35.9006 -33.4873 -33.4873 -33.2110 -33.2110
   -13.9352 -13.9352 -12.5704 -12.5704  -5.4681  -5.4681  -2.2466  -2.2466
    -2.1573  -2.1573  -1.5728  -1.5728  -1.0814  -1.0814  -1.0290  -1.0290
     0.2432   0.2432

     occupation numbers 
     1.0000   1.0000   1.0000   1.0000   1.0000   1.0000   1.0000   1.0000
     1.0000   1.0000   1.0000   1.0000   1.0000   1.0000   1.0000   1.0000
     1.0000   1.0000   1.0000   1.0000   1.0000   1.0000   1.0000   1.0000
     1.0000   1.0000

          k = 0.0000 0.3849 0.0000 (  7036 PWs)   bands (ev):

   -59.8127 -59.8127 -35.9994 -35.9994 -33.5864 -33.5864 -33.3896 -33.3896
   -12.4733 -12.4733 -11.9788 -11.9788  -5.0944  -5.0944  -4.0431  -4.0431
    -3.5843  -3.5843  -2.5147  -2.5147  -1.3237  -1.3237  -0.8681  -0.8681
    -0.6401  -0.6401

     occupation numbers 
     1.0000   1.0000   1.0000   1.0000   1.0000   1.0000   1.0000   1.0000
     1.0000   1.0000   1.0000   1.0000   1.0000   1.0000   1.0000   1.0000
     1.0000   1.0000   1.0000   1.0000   1.0000   1.0000   1.0000   1.0000
     1.0000   1.0000

          k = 0.3333 0.5774 0.0000 (  7047 PWs)   bands (ev):

   -59.7932 -59.7932 -36.0630 -36.0329 -33.6086 -33.5494 -33.5451 -33.5286
   -11.5565 -11.5455 -11.5410 -11.4712  -5.3585  -5.3364  -4.4428  -4.4424
    -3.9760  -3.8485  -3.2161  -3.1712  -2.6616  -2.6589  -1.8465  -1.8234
     0.3962   0.5241

     occupation numbers 
     1.0000   1.0000   1.0000   1.0000   1.0000   1.0000   1.0000   1.0000
     1.0000   1.0000   1.0000   1.0000   1.0000   1.0000   1.0000   1.0000
     1.0000   1.0000   1.0000   1.0000   1.0000   1.0000   1.0000   1.0000
     1.0000   1.0000

     highest occupied level (ev):     0.5241

!    total energy              =    -237.27988180 Ry
     estimated scf accuracy    <          2.8E-13 Ry

     The total energy is the sum of the following terms:
     one-electron contribution =    -816.86662230 Ry
     hartree contribution      =     410.60071618 Ry
     xc contribution           =     -86.43661356 Ry
     ewald contribution        =     255.42263788 Ry

     convergence has been achieved in  44 iterations

     Writing all to output data dir ./mos2.save/ :
     XML data file, charge density, pseudopotentials, collected wavefunctions

     init_run     :      0.13s CPU      0.16s WALL (       1 calls)
     electrons    :      8.98s CPU      9.70s WALL (       1 calls)

     Called by init_run:
     wfcinit      :      0.09s CPU      0.11s WALL (       1 calls)
     wfcinit:atom :      0.00s CPU      0.00s WALL (       3 calls)
     wfcinit:wfcr :      0.08s CPU      0.10s WALL (       3 calls)
     potinit      :      0.00s CPU      0.01s WALL (       1 calls)
     hinit0       :      0.02s CPU      0.02s WALL (       1 calls)

     Called by electrons:
     c_bands      :      7.27s CPU      7.84s WALL (      44 calls)
     sum_band     :      0.78s CPU      0.88s WALL (      44 calls)
     v_of_rho     :      0.04s CPU      0.04s WALL (      45 calls)
     v_h          :      0.01s CPU      0.01s WALL (      45 calls)
     v_xc         :      0.03s CPU      0.03s WALL (      45 calls)
     mix_rho      :      0.82s CPU      0.85s WALL (      44 calls)

     Called by c_bands:
     init_us_2    :      0.09s CPU      0.10s WALL (     267 calls)
     cegterg      :      6.89s CPU      7.45s WALL (     132 calls)

     Called by sum_band:
     sum_band:wei :      0.00s CPU      0.00s WALL (      44 calls)
     sum_band:loo :      0.69s CPU      0.78s WALL (      44 calls)
     sum_band:buf :      0.04s CPU      0.04s WALL (     132 calls)
     sum_band:ini :      0.03s CPU      0.04s WALL (     132 calls)

     Called by *egterg:
     cdiaghg      :      0.27s CPU      0.29s WALL (     721 calls)
     cegterg:over :      0.40s CPU      0.44s WALL (     589 calls)
     cegterg:upda :      0.38s CPU      0.40s WALL (     589 calls)
     cegterg:last :      0.68s CPU      0.70s WALL (     351 calls)
     h_psi        :      4.79s CPU      5.26s WALL (     724 calls)
     g_psi        :      0.07s CPU      0.07s WALL (     589 calls)

     Called by h_psi:
     h_psi:calbec :      0.28s CPU      0.31s WALL (     724 calls)
     vloc_psi     :      4.05s CPU      4.44s WALL (     724 calls)
     add_vuspsi   :      0.34s CPU      0.38s WALL (     724 calls)

     General routines
     calbec       :      0.27s CPU      0.31s WALL (     724 calls)
     fft          :      0.06s CPU      0.06s WALL (     399 calls)
     ffts         :      0.02s CPU      0.02s WALL (     176 calls)
     fftw         :      3.70s CPU      4.09s WALL (   49820 calls)

     Parallel routines

     PWSCF        :      9.16s CPU      9.92s WALL


   This run was terminated on:  15:10: 5   4Sep2025            

=------------------------------------------------------------------------------=
   JOB DONE.
=------------------------------------------------------------------------------=
