
     Program PWSCF v.7.5 starts on  1Jun2026 at 12:10:56 

     This program is part of the open-source Quantum ESPRESSO suite
     for quantum simulation of materials; please cite
         "P. Giannozzi et al., J. Phys.:Condens. Matter 21 395502 (2009);
         "P. Giannozzi et al., J. Phys.:Condens. Matter 29 465901 (2017);
         "P. Giannozzi et al., J. Chem. Phys. 152 154105 (2020);
          URL http://www.quantum-espresso.org", 
     in publications or presentations arising from this work. More details at
     http://www.quantum-espresso.org/quote

     Parallel version (MPI & OpenMP), running on       4 processor cores
     Number of MPI processes:                 2
     Threads/MPI process:                     2

     MPI processes distributed on     1 nodes
     1004 MiB available memory on the printing compute node when the environment starts

     Reading input from nscf.in
Warning: card  &IONS ignored
Warning: card  / ignored

     Current dimensions of program PWSCF are:
     Max number of different atomic species (ntypx) = 10
     Max number of k-points (npk) =  40000
     Max angular momentum in pseudopotentials (lmaxx) =  4
     file H.pz-vbc.UPF: wavefunction(s)  1S renormalized

     Atomic positions and unit cell read from directory:
     ./chain.save/
     Atomic positions from file used, from input discarded


     K-points division:     npool     =       2
     Subspace diagonalization in iterative solution of the eigenvalue problem:
     a serial algorithm will be used


     G-vector sticks info
     --------------------
     sticks:   dense  smooth     PW     G-vecs:    dense   smooth      PW
     Sum        3181    3181   1153                20877    20877    4437

     Using Slab Decomposition



     bravais-lattice index     =            8
     lattice parameter (alat)  =      20.0000  a.u.
     unit-cell volume          =    1244.5280 (a.u.)^3
     number of atoms/cell      =            4
     number of atomic types    =            2
     number of electrons       =        10.00
     number of Kohn-Sham states=           25
     kinetic-energy cutoff     =      25.0000  Ry
     charge density cutoff     =     100.0000  Ry
     Exchange-correlation=  SLA  PZ   NOGX NOGC
                           (   1   1   0   0   0   0   0)

     celldm(1)=  15.000000  celldm(2)=   1.000000  celldm(3)=   0.155566
     celldm(4)=   0.000000  celldm(5)=   0.000000  celldm(6)=   0.000000

     crystal axes: (cart. coord. in units of alat)
               a(1) = (   1.000000   0.000000   0.000000 )  
               a(2) = (   0.000000   1.000000   0.000000 )  
               a(3) = (   0.000000   0.000000   0.155566 )  

     reciprocal axes: (cart. coord. in units 2 pi/alat)
               b(1) = (  1.000000  0.000000  0.000000 )  
               b(2) = (  0.000000  1.000000  0.000000 )  
               b(3) = (  0.000000  0.000000  6.428140 )  


     PseudoPot. # 1 for C  read from file:
     ./C.pz-vbc.UPF
     MD5 check sum: ab53dd623bfeb79c5a7b057bc96eae20
     Pseudo is Norm-conserving, Zval =  4.0
     Generated by new atomic code, or converted to UPF format
     Using radial grid of  269 points,  1 beta functions with: 
                l(1) =   0

     PseudoPot. # 2 for H  read from file:
     ./H.pz-vbc.UPF
     MD5 check sum: 90becb985b714f09656c73597998d266
     Pseudo is Norm-conserving, Zval =  1.0
     Generated by new atomic code, or converted to UPF format
     Using radial grid of  131 points,  0 beta functions with: 

     atomic species   valence    mass     pseudopotential
     C                 4.00     1.00000     C ( 1.00)
     H                 1.00     1.00000     H ( 1.00)

      2 Sym. Ops. (no inversion) found


                                    s                        frac. trans.

      isym =  1     identity                                     

 cryst.   s( 1) = (     1          0          0      )
                  (     0          1          0      )
                  (     0          0          1      )

 cart.    s( 1) = (  1.0000000  0.0000000  0.0000000 )
                  (  0.0000000  1.0000000  0.0000000 )
                  (  0.0000000  0.0000000  1.0000000 )


      isym =  2     inv. 180 deg rotation - cart. axis [0,1,0]   

 cryst.   s( 2) = (     1          0          0      )
                  (     0         -1          0      )
                  (     0          0          1      )

 cart.    s( 2) = (  1.0000000  0.0000000  0.0000000 )
                  (  0.0000000 -1.0000000  0.0000000 )
                  (  0.0000000  0.0000000  1.0000000 )


     point group C_s (m)    
     there are  2 classes
     the character table:

       E     s    
A'     1.00  1.00
A''    1.00 -1.00

     the symmetry operations in each class and the name of the first element:

     E        1
          identity                                               
     s        2
          inv. 180 deg rotation - cart. axis [0,1,0]             

   Cartesian axes

     site n.     atom                  positions (alat units)
         1        C      tau(   1) = (   0.0000000   0.0000000  -0.0553485  )
         2        C      tau(   2) = (   0.0612594   0.0000000   0.0553488  )
         3        H      tau(   3) = (  -0.1017609   0.0000000  -0.0557749  )
         4        H      tau(   4) = (   0.1630203   0.0000000   0.0557752  )

   Crystallographic axes

     site n.     atom                  positions (cryst. coord.)
         1        C      tau(   1) = (  0.0000000  0.0000000 -0.3557879  )
         2        C      tau(   2) = (  0.0612594  0.0000000  0.3557899  )
         3        H      tau(   3) = ( -0.1017609  0.0000000 -0.3585287  )
         4        H      tau(   4) = (  0.1630203  0.0000000  0.3585307  )

     number of k points=     6
                       cart. coord. in units 2pi/alat
        k(    1) = (   0.0000000   0.0000000   0.0000000), wk =   0.2000000
        k(    2) = (   0.0000000   0.0000000   0.6428140), wk =   0.4000000
        k(    3) = (   0.0000000   0.0000000   1.2856280), wk =   0.4000000
        k(    4) = (   0.0000000   0.0000000   1.9284419), wk =   0.4000000
        k(    5) = (   0.0000000   0.0000000   2.5712559), wk =   0.4000000
        k(    6) = (   0.0000000   0.0000000  -3.2140699), wk =   0.2000000

                       cryst. coord.
        k(    1) = (   0.0000000   0.0000000   0.0000000), wk =   0.2000000
        k(    2) = (   0.0000000   0.0000000   0.1000000), wk =   0.4000000
        k(    3) = (   0.0000000   0.0000000   0.2000000), wk =   0.4000000
        k(    4) = (   0.0000000   0.0000000   0.3000000), wk =   0.4000000
        k(    5) = (   0.0000000   0.0000000   0.4000000), wk =   0.4000000
        k(    6) = (   0.0000000   0.0000000  -0.5000000), wk =   0.2000000

     Dense  grid:    20877 G-vectors     FFT dimensions: (  64,  64,   9)

     Dynamical RAM for                 wfc:       1.00 MB

     Dynamical RAM for     wfc (w. buffer):       1.00 MB

     Dynamical RAM for           str. fact:       0.64 MB

     Dynamical RAM for           local pot:       0.00 MB

     Dynamical RAM for          nlocal pot:       0.08 MB

     Dynamical RAM for                qrad:       0.02 MB

     Dynamical RAM for          rho,v,vnew:       1.80 MB

     Dynamical RAM for           G-vectors:       1.35 MB

     Dynamical RAM for          h,s,v(r/c):       0.11 MB

     Dynamical RAM for          <psi|beta>:       0.00 MB

     Dynamical RAM for                 psi:       2.00 MB

     Dynamical RAM for                hpsi:       2.00 MB

     Dynamical RAM for      wfcinit/wfcrot:       2.02 MB

     Estimated static dynamical RAM per process >       7.25 MB

     Estimated max dynamical RAM per process >      11.37 MB

     Estimated total dynamical RAM >      22.75 MB

     The potential is recalculated from file :
     ./chain.save/charge-density

     Starting wfcs are   10 randomized atomic wfcs +   15 random wfcs

     Band Structure Calculation
     Davidson diagonalization with overlap

     Computing kpt #:     1  of     3 on this pool
     total cpu time spent up to now is        2.7 secs

     Computing kpt #:     2  of     3 on this pool
     total cpu time spent up to now is        5.7 secs

     Computing kpt #:     3  of     3 on this pool
     total cpu time spent up to now is        8.7 secs

     ethr =  1.00E-10,  avg # of iterations = 46.7

     total cpu time spent up to now is        8.7 secs

     End of band structure calculation

          k = 0.0000 0.0000 0.0000 (  2677 PWs)   bands (ev):

   -26.1136 -17.4164 -15.0964 -12.4346  -1.1842  -0.4470  -0.2712   0.4083
     0.6222   1.6493   2.0740   2.2800   2.7701   3.2107   3.2546   4.1567
     4.5611   5.1386   5.3014   6.0574   6.4087   6.4201   6.6908   6.8290
     6.9439

     occupation numbers 
     1.0000   1.0000   1.0000   1.0000   1.0000   0.0000   0.0000   0.0000
     0.0000   0.0000   0.0000   0.0000   0.0000   0.0000   0.0000   0.0000
     0.0000   0.0000   0.0000   0.0000   0.0000   0.0000   0.0000   0.0000
     0.0000

          k = 0.0000 0.0000 0.6428 (  2669 PWs)   bands (ev):

   -25.8506 -17.1096 -14.6067 -12.0668  -2.3040   0.2178   0.2567   0.8731
     1.1691   1.7056   2.4809   2.8161   3.3207   3.4893   3.7930   4.3964
     5.1114   5.5641   5.7548   6.4910   6.9533   6.9756   7.1792   7.3882
     7.4926

     occupation numbers 
     1.0000   1.0000   1.0000   1.0000   1.0000   0.0000   0.0000   0.0000
     0.0000   0.0000   0.0000   0.0000   0.0000   0.0000   0.0000   0.0000
     0.0000   0.0000   0.0000   0.0000   0.0000   0.0000   0.0000   0.0000
     0.0000

          k = 0.0000 0.0000 1.2856 (  2661 PWs)   bands (ev):

   -25.0801 -16.3463 -13.1848 -11.0364  -5.5301   1.8084   1.9035   2.2834
     2.7905   2.8025   4.0797   4.4511   4.8521   4.9652   5.3906   5.8326
     6.7564   7.0605   7.3767   8.0998   8.5704   8.6399   8.7654   9.0363
     9.1280

     occupation numbers 
     1.0000   1.0000   1.0000   1.0000   1.0000   0.0000   0.0000   0.0000
     0.0000   0.0000   0.0000   0.0000   0.0000   0.0000   0.0000   0.0000
     0.0000   0.0000   0.0000   0.0000   0.0000   0.0000   0.0000   0.0000
     0.0000

          k = 0.0000 0.0000 1.9284 (  2625 PWs)   bands (ev):

   -23.7991 -15.8592 -10.9312  -9.6592  -8.0714   4.1431   4.5038   4.5699
     5.0926   5.4945   6.7626   7.1246   7.2082   7.6034   7.9576   8.3596
     9.4513   9.6010  10.0250  10.8035  10.9489  11.0236  11.4107  11.7224
    11.7773

     occupation numbers 
     1.0000   1.0000   1.0000   1.0000   1.0000   0.0000   0.0000   0.0000
     0.0000   0.0000   0.0000   0.0000   0.0000   0.0000   0.0000   0.0000
     0.0000   0.0000   0.0000   0.0000   0.0000   0.0000   0.0000   0.0000
     0.0000

          k = 0.0000 0.0000 2.5713 (  2581 PWs)   bands (ev):

   -22.1144 -16.9114  -8.7781  -8.2680  -7.8119   4.9433   5.5883   7.6712
     8.5556   9.1254   9.7127  10.1782  10.4124  10.9731  11.3617  11.6687
    11.9787  12.6374  13.1626  13.5531  13.7913  14.2892  14.9184  15.2651
    15.2696

     occupation numbers 
     1.0000   1.0000   1.0000   1.0000   1.0000   0.0000   0.0000   0.0000
     0.0000   0.0000   0.0000   0.0000   0.0000   0.0000   0.0000   0.0000
     0.0000   0.0000   0.0000   0.0000   0.0000   0.0000   0.0000   0.0000
     0.0000

          k = 0.0000 0.0000-3.2141 (  2532 PWs)   bands (ev):

   -20.8080 -18.1647  -7.8622  -7.6620  -6.7355   3.5783   5.1269   9.2797
    11.2920  11.2971  12.9205  13.5354  14.1250  14.1386  14.6732  14.8869
    15.0087  15.0113  15.5578  15.6847  15.8322  16.1276  16.5289  16.5897
    16.6660

     occupation numbers 
     1.0000   1.0000   1.0000   1.0000   1.0000   0.0000   0.0000   0.0000
     0.0000   0.0000   0.0000   0.0000   0.0000   0.0000   0.0000   0.0000
     0.0000   0.0000   0.0000   0.0000   0.0000   0.0000   0.0000   0.0000
     0.0000

     highest occupied, lowest unoccupied level (ev):    -1.1842   -0.4470

     Writing all to output data dir ./chain.save/ :
     XML data file, pseudopotentials, collected wavefunctions

     init_run     :      0.30s CPU      0.27s WALL (       1 calls)
     electrons    :     16.38s CPU      8.35s WALL (       1 calls)

     Called by init_run:
     wfcinit      :      0.00s CPU      0.00s WALL (       1 calls)
     wfcinit:atom :      0.00s CPU      0.00s WALL (       3 calls)
     wfcinit:wfcr :      0.50s CPU      0.30s WALL (       3 calls)
     potinit      :      0.04s CPU      0.04s WALL (       1 calls)
     hinit0       :      0.25s CPU      0.22s WALL (       1 calls)

     Called by electrons:
     c_bands      :     16.38s CPU      8.35s WALL (       1 calls)
     v_of_rho     :      0.00s CPU      0.00s WALL (       1 calls)
     v_h          :      0.00s CPU      0.00s WALL (       1 calls)
     v_xc         :      0.00s CPU      0.00s WALL (       1 calls)

     Called by c_bands:
     init_us_2    :      0.00s CPU      0.00s WALL (       3 calls)
     cegterg      :     15.87s CPU      8.04s WALL (       8 calls)

     Called by sum_band:

     Called by *egterg:
     cdiaghg      :      0.35s CPU      0.18s WALL (     126 calls)
     cegterg:over :      0.60s CPU      0.32s WALL (     123 calls)
     cegterg:upda :      1.34s CPU      0.67s WALL (     123 calls)
     cegterg:last :      0.52s CPU      0.28s WALL (      87 calls)
     h_psi        :     12.56s CPU      6.42s WALL (     134 calls)
     g_psi        :      0.05s CPU      0.04s WALL (     123 calls)

     Called by h_psi:
     h_psi:calbec :      0.45s CPU      0.21s WALL (     134 calls)
     vloc_psi     :     10.98s CPU      5.63s WALL (     134 calls)
                                        0.00s GPU  (     134 calls)
     add_vuspsi   :      0.59s CPU      0.30s WALL (     134 calls)

     General routines
     calbec       :      0.45s CPU      0.21s WALL (     134 calls)
     fft          :      0.24s CPU      0.20s WALL (       3 calls)
     fftw         :      9.32s CPU      4.95s WALL (    4192 calls)
     davcio       :      0.00s CPU      0.00s WALL (       6 calls)

     Parallel routines

     PWSCF        :     16.73s CPU      8.67s WALL


   This run was terminated on:  12:11: 4   1Jun2026            

=------------------------------------------------------------------------------=
   JOB DONE.
=------------------------------------------------------------------------------=
