
     Program PWSCF v.7.5 starts on  1Jun2026 at 12: 9:33 

     This program is part of the open-source Quantum ESPRESSO suite
     for quantum simulation of materials; please cite
         "P. Giannozzi et al., J. Phys.:Condens. Matter 21 395502 (2009);
         "P. Giannozzi et al., J. Phys.:Condens. Matter 29 465901 (2017);
         "P. Giannozzi et al., J. Chem. Phys. 152 154105 (2020);
          URL http://www.quantum-espresso.org", 
     in publications or presentations arising from this work. More details at
     http://www.quantum-espresso.org/quote

     Parallel version (MPI & OpenMP), running on       4 processor cores
     Number of MPI processes:                 2
     Threads/MPI process:                     2

     MPI processes distributed on     1 nodes
     1405 MiB available memory on the printing compute node when the environment starts

     Reading input from scf.in

     Current dimensions of program PWSCF are:
     Max number of different atomic species (ntypx) = 10
     Max number of k-points (npk) =  40000
     Max angular momentum in pseudopotentials (lmaxx) =  4
     file H.pz-vbc.UPF: wavefunction(s)  1S renormalized

     R & G space division:  proc/nbgrp/npool/nimage =       2
     Subspace diagonalization in iterative solution of the eigenvalue problem:
     a serial algorithm will be used


     Parallelization info
     --------------------
     sticks:   dense  smooth     PW     G-vecs:    dense   smooth      PW
     Min        1590    1590    576                10438    10438    2218
     Max        1591    1591    577                10439    10439    2219
     Sum        3181    3181   1153                20877    20877    4437

     Using Slab Decomposition



     bravais-lattice index     =            8
     lattice parameter (alat)  =      20.0000  a.u.
     unit-cell volume          =    1244.5280 (a.u.)^3
     number of atoms/cell      =            4
     number of atomic types    =            2
     number of electrons       =        10.00
     number of Kohn-Sham states=            5
     kinetic-energy cutoff     =      25.0000  Ry
     charge density cutoff     =     100.0000  Ry
     scf convergence threshold =      1.0E-08
     mixing beta               =       0.4000
     number of iterations used =            8  plain     mixing
     Exchange-correlation=  SLA  PZ   NOGX NOGC
                           (   1   1   0   0   0   0   0)

     celldm(1)=  20.000000  celldm(2)=   1.000000  celldm(3)=   0.155566
     celldm(4)=   0.000000  celldm(5)=   0.000000  celldm(6)=   0.000000

     crystal axes: (cart. coord. in units of alat)
               a(1) = (   1.000000   0.000000   0.000000 )  
               a(2) = (   0.000000   1.000000   0.000000 )  
               a(3) = (   0.000000   0.000000   0.155566 )  

     reciprocal axes: (cart. coord. in units 2 pi/alat)
               b(1) = (  1.000000  0.000000  0.000000 )  
               b(2) = (  0.000000  1.000000  0.000000 )  
               b(3) = (  0.000000  0.000000  6.428140 )  


     PseudoPot. # 1 for C  read from file:
     ./C.pz-vbc.UPF
     MD5 check sum: ab53dd623bfeb79c5a7b057bc96eae20
     Pseudo is Norm-conserving, Zval =  4.0
     Generated by new atomic code, or converted to UPF format
     Using radial grid of  269 points,  1 beta functions with: 
                l(1) =   0

     PseudoPot. # 2 for H  read from file:
     ./H.pz-vbc.UPF
     MD5 check sum: 90becb985b714f09656c73597998d266
     Pseudo is Norm-conserving, Zval =  1.0
     Generated by new atomic code, or converted to UPF format
     Using radial grid of  131 points,  0 beta functions with: 

     atomic species   valence    mass     pseudopotential
     C                 4.00     1.00000     C ( 1.00)
     H                 1.00     1.00000     H ( 1.00)

      2 Sym. Ops. (no inversion) found


                                    s                        frac. trans.

      isym =  1     identity                                     

 cryst.   s( 1) = (     1          0          0      )
                  (     0          1          0      )
                  (     0          0          1      )

 cart.    s( 1) = (  1.0000000  0.0000000  0.0000000 )
                  (  0.0000000  1.0000000  0.0000000 )
                  (  0.0000000  0.0000000  1.0000000 )


      isym =  2     inv. 180 deg rotation - cart. axis [0,1,0]   

 cryst.   s( 2) = (     1          0          0      )
                  (     0         -1          0      )
                  (     0          0          1      )

 cart.    s( 2) = (  1.0000000  0.0000000  0.0000000 )
                  (  0.0000000 -1.0000000  0.0000000 )
                  (  0.0000000  0.0000000  1.0000000 )


     point group C_s (m)    
     there are  2 classes
     the character table:

       E     s    
A'     1.00  1.00
A''    1.00 -1.00

     the symmetry operations in each class and the name of the first element:

     E        1
          identity                                               
     s        2
          inv. 180 deg rotation - cart. axis [0,1,0]             

   Cartesian axes

     site n.     atom                  positions (alat units)
         1        C      tau(   1) = (   0.0000000   0.0000000  -0.0553485  )
         2        C      tau(   2) = (   0.0612594   0.0000000   0.0553488  )
         3        H      tau(   3) = (  -0.1017609   0.0000000  -0.0557749  )
         4        H      tau(   4) = (   0.1630203   0.0000000   0.0557752  )

   Crystallographic axes

     site n.     atom                  positions (cryst. coord.)
         1        C      tau(   1) = (  0.0000000  0.0000000 -0.3557879  )
         2        C      tau(   2) = (  0.0612594  0.0000000  0.3557899  )
         3        H      tau(   3) = ( -0.1017609  0.0000000 -0.3585287  )
         4        H      tau(   4) = (  0.1630203  0.0000000  0.3585307  )

     number of k points=     6
                       cart. coord. in units 2pi/alat
        k(    1) = (   0.0000000   0.0000000   0.0000000), wk =   0.2000000
        k(    2) = (   0.0000000   0.0000000   0.6428140), wk =   0.4000000
        k(    3) = (   0.0000000   0.0000000   1.2856280), wk =   0.4000000
        k(    4) = (   0.0000000   0.0000000   1.9284419), wk =   0.4000000
        k(    5) = (   0.0000000   0.0000000   2.5712559), wk =   0.4000000
        k(    6) = (   0.0000000   0.0000000  -3.2140699), wk =   0.2000000

                       cryst. coord.
        k(    1) = (   0.0000000   0.0000000   0.0000000), wk =   0.2000000
        k(    2) = (   0.0000000   0.0000000   0.1000000), wk =   0.4000000
        k(    3) = (   0.0000000   0.0000000   0.2000000), wk =   0.4000000
        k(    4) = (   0.0000000   0.0000000   0.3000000), wk =   0.4000000
        k(    5) = (   0.0000000   0.0000000   0.4000000), wk =   0.4000000
        k(    6) = (   0.0000000   0.0000000  -0.5000000), wk =   0.2000000

     Dense  grid:    20877 G-vectors     FFT dimensions: (  64,  64,   9)

     Dynamical RAM for                 wfc:       0.10 MB

     Dynamical RAM for     wfc (w. buffer):       0.70 MB

     Dynamical RAM for           str. fact:       0.32 MB

     Dynamical RAM for           local pot:       0.00 MB

     Dynamical RAM for          nlocal pot:       0.04 MB

     Dynamical RAM for                qrad:       0.02 MB

     Dynamical RAM for          rho,v,vnew:       0.95 MB

     Dynamical RAM for               rhoin:       0.32 MB

     Dynamical RAM for            rho*nmix:       2.55 MB

     Dynamical RAM for           G-vectors:       0.68 MB

     Dynamical RAM for          h,s,v(r/c):       0.00 MB

     Dynamical RAM for          <psi|beta>:       0.00 MB

     Dynamical RAM for                 psi:       0.20 MB

     Dynamical RAM for                hpsi:       0.20 MB

     Dynamical RAM for      wfcinit/wfcrot:       0.20 MB

     Estimated static dynamical RAM per process >       4.27 MB

     Estimated max dynamical RAM per process >       7.23 MB

     Estimated total dynamical RAM >      14.45 MB

     Initial potential from superposition of free atoms

     starting charge       9.9999, renormalised to      10.0000

     negative rho (up, down):  5.742E-03 0.000E+00
     Starting wfcs are   10 randomized atomic wfcs

     total cpu time spent up to now is        0.3 secs

     per-process dynamical memory:    13.2 Mb

     Self-consistent Calculation

     iteration #  1     ecut=    25.00 Ry     beta= 0.40
     Davidson diagonalization with overlap

---- Real-time Memory Report at c_bands before calling an iterative solver
            50 MiB given to the printing process from OS
            12 MiB allocation reported by mallinfo(arena+hblkhd)
          1386 MiB available memory on the node where the printing process lives
------------------
     ethr =  1.00E-02,  avg # of iterations =  3.0

     negative rho (up, down):  3.258E-03 0.000E+00

     total cpu time spent up to now is        0.5 secs

     total energy              =     -21.95273487 Ry
     estimated scf accuracy    <       2.31899083 Ry

     iteration #  2     ecut=    25.00 Ry     beta= 0.40
     Davidson diagonalization with overlap

---- Real-time Memory Report at c_bands before calling an iterative solver
            53 MiB given to the printing process from OS
            14 MiB allocation reported by mallinfo(arena+hblkhd)
          1378 MiB available memory on the node where the printing process lives
------------------
     ethr =  1.00E-02,  avg # of iterations =  2.5

     negative rho (up, down):  1.192E-03 0.000E+00

     total cpu time spent up to now is        0.7 secs

     total energy              =     -22.22220293 Ry
     estimated scf accuracy    <       0.15907727 Ry

     iteration #  3     ecut=    25.00 Ry     beta= 0.40
     Davidson diagonalization with overlap

---- Real-time Memory Report at c_bands before calling an iterative solver
            53 MiB given to the printing process from OS
            14 MiB allocation reported by mallinfo(arena+hblkhd)
          1378 MiB available memory on the node where the printing process lives
------------------
     ethr =  1.59E-03,  avg # of iterations =  2.0

     total cpu time spent up to now is        0.8 secs

     total energy              =     -22.21958556 Ry
     estimated scf accuracy    <       0.03538661 Ry

     iteration #  4     ecut=    25.00 Ry     beta= 0.40
     Davidson diagonalization with overlap

---- Real-time Memory Report at c_bands before calling an iterative solver
            53 MiB given to the printing process from OS
            15 MiB allocation reported by mallinfo(arena+hblkhd)
          1375 MiB available memory on the node where the printing process lives
------------------
     ethr =  3.54E-04,  avg # of iterations =  2.7

     total cpu time spent up to now is        0.9 secs

     total energy              =     -22.22430327 Ry
     estimated scf accuracy    <       0.00853232 Ry

     iteration #  5     ecut=    25.00 Ry     beta= 0.40
     Davidson diagonalization with overlap

---- Real-time Memory Report at c_bands before calling an iterative solver
            54 MiB given to the printing process from OS
            15 MiB allocation reported by mallinfo(arena+hblkhd)
          1375 MiB available memory on the node where the printing process lives
------------------
     c_bands:  1 eigenvalues not converged
     ethr =  8.53E-05,  avg # of iterations =  5.2

     total cpu time spent up to now is        1.2 secs

     total energy              =     -22.23737396 Ry
     estimated scf accuracy    <       0.00186960 Ry

     iteration #  6     ecut=    25.00 Ry     beta= 0.40
     Davidson diagonalization with overlap

---- Real-time Memory Report at c_bands before calling an iterative solver
            54 MiB given to the printing process from OS
            15 MiB allocation reported by mallinfo(arena+hblkhd)
          1374 MiB available memory on the node where the printing process lives
------------------
     ethr =  1.87E-05,  avg # of iterations =  2.2

     negative rho (up, down):  2.151E-03 0.000E+00

     total cpu time spent up to now is        1.4 secs

     total energy              =     -22.23757071 Ry
     estimated scf accuracy    <       0.00101202 Ry

     iteration #  7     ecut=    25.00 Ry     beta= 0.40
     Davidson diagonalization with overlap

---- Real-time Memory Report at c_bands before calling an iterative solver
            54 MiB given to the printing process from OS
            16 MiB allocation reported by mallinfo(arena+hblkhd)
          1374 MiB available memory on the node where the printing process lives
------------------
     ethr =  1.01E-05,  avg # of iterations =  2.8

     negative rho (up, down):  1.273E-03 0.000E+00

     total cpu time spent up to now is        1.5 secs

     total energy              =     -22.23773256 Ry
     estimated scf accuracy    <       0.00199366 Ry

     iteration #  8     ecut=    25.00 Ry     beta= 0.40
     Davidson diagonalization with overlap

---- Real-time Memory Report at c_bands before calling an iterative solver
            55 MiB given to the printing process from OS
            16 MiB allocation reported by mallinfo(arena+hblkhd)
          1374 MiB available memory on the node where the printing process lives
------------------
     ethr =  1.01E-05,  avg # of iterations =  1.2

     negative rho (up, down):  2.035E-05 0.000E+00

     total cpu time spent up to now is        1.7 secs

     total energy              =     -22.23744553 Ry
     estimated scf accuracy    <       0.00093465 Ry

     iteration #  9     ecut=    25.00 Ry     beta= 0.40
     Davidson diagonalization with overlap

---- Real-time Memory Report at c_bands before calling an iterative solver
            55 MiB given to the printing process from OS
            16 MiB allocation reported by mallinfo(arena+hblkhd)
          1372 MiB available memory on the node where the printing process lives
------------------
     ethr =  9.35E-06,  avg # of iterations =  2.2

     negative rho (up, down):  4.432E-06 0.000E+00

     total cpu time spent up to now is        2.1 secs

     total energy              =     -22.23748220 Ry
     estimated scf accuracy    <       0.00011286 Ry

     iteration # 10     ecut=    25.00 Ry     beta= 0.40
     Davidson diagonalization with overlap

---- Real-time Memory Report at c_bands before calling an iterative solver
            55 MiB given to the printing process from OS
            17 MiB allocation reported by mallinfo(arena+hblkhd)
          1372 MiB available memory on the node where the printing process lives
------------------
     ethr =  1.13E-06,  avg # of iterations =  2.7

     total cpu time spent up to now is        2.4 secs

     total energy              =     -22.23751122 Ry
     estimated scf accuracy    <       0.00000362 Ry

     iteration # 11     ecut=    25.00 Ry     beta= 0.40
     Davidson diagonalization with overlap

---- Real-time Memory Report at c_bands before calling an iterative solver
            55 MiB given to the printing process from OS
            17 MiB allocation reported by mallinfo(arena+hblkhd)
          1372 MiB available memory on the node where the printing process lives
------------------
     ethr =  3.62E-08,  avg # of iterations =  3.8

     total cpu time spent up to now is        2.5 secs

     total energy              =     -22.23751275 Ry
     estimated scf accuracy    <       0.00000016 Ry

     iteration # 12     ecut=    25.00 Ry     beta= 0.40
     Davidson diagonalization with overlap

---- Real-time Memory Report at c_bands before calling an iterative solver
            55 MiB given to the printing process from OS
            17 MiB allocation reported by mallinfo(arena+hblkhd)
          1372 MiB available memory on the node where the printing process lives
------------------
     ethr =  1.65E-09,  avg # of iterations =  4.2

     total cpu time spent up to now is        2.8 secs

     total energy              =     -22.23751293 Ry
     estimated scf accuracy    <       0.00000037 Ry

     iteration # 13     ecut=    25.00 Ry     beta= 0.40
     Davidson diagonalization with overlap

---- Real-time Memory Report at c_bands before calling an iterative solver
            55 MiB given to the printing process from OS
            17 MiB allocation reported by mallinfo(arena+hblkhd)
          1343 MiB available memory on the node where the printing process lives
------------------
     ethr =  1.65E-09,  avg # of iterations =  2.7

     total cpu time spent up to now is        3.0 secs

     total energy              =     -22.23751287 Ry
     estimated scf accuracy    <       0.00000013 Ry

     iteration # 14     ecut=    25.00 Ry     beta= 0.40
     Davidson diagonalization with overlap

---- Real-time Memory Report at c_bands before calling an iterative solver
            55 MiB given to the printing process from OS
            17 MiB allocation reported by mallinfo(arena+hblkhd)
          1344 MiB available memory on the node where the printing process lives
------------------
     ethr =  1.34E-09,  avg # of iterations =  2.5

     total cpu time spent up to now is        3.3 secs

     total energy              =     -22.23751292 Ry
     estimated scf accuracy    <       0.00000003 Ry

     iteration # 15     ecut=    25.00 Ry     beta= 0.40
     Davidson diagonalization with overlap

---- Real-time Memory Report at c_bands before calling an iterative solver
            55 MiB given to the printing process from OS
            17 MiB allocation reported by mallinfo(arena+hblkhd)
          1344 MiB available memory on the node where the printing process lives
------------------
     ethr =  2.95E-10,  avg # of iterations =  1.5

     total cpu time spent up to now is        3.4 secs

     End of self-consistent calculation

          k = 0.0000 0.0000 0.0000 (  2677 PWs)   bands (ev):

   -26.1148 -17.4170 -15.0974 -12.4352  -1.1844

     occupation numbers 
     1.0000   1.0000   1.0000   1.0000   1.0000

          k = 0.0000 0.0000 0.6428 (  2669 PWs)   bands (ev):

   -25.8518 -17.1103 -14.6077 -12.0674  -2.3047

     occupation numbers 
     1.0000   1.0000   1.0000   1.0000   1.0000

          k = 0.0000 0.0000 1.2856 (  2661 PWs)   bands (ev):

   -25.0813 -16.3471 -13.1858 -11.0371  -5.5310

     occupation numbers 
     1.0000   1.0000   1.0000   1.0000   1.0000

          k = 0.0000 0.0000 1.9284 (  2625 PWs)   bands (ev):

   -23.8004 -15.8602 -10.9323  -9.6599  -8.0721

     occupation numbers 
     1.0000   1.0000   1.0000   1.0000   1.0000

          k = 0.0000 0.0000 2.5713 (  2581 PWs)   bands (ev):

   -22.1157 -16.9127  -8.7787  -8.2691  -7.8125

     occupation numbers 
     1.0000   1.0000   1.0000   1.0000   1.0000

          k = 0.0000 0.0000-3.2141 (  2532 PWs)   bands (ev):

   -20.8093 -18.1661  -7.8628  -7.6626  -6.7366

     occupation numbers 
     1.0000   1.0000   1.0000   1.0000   1.0000

     highest occupied level (ev):    -1.1844

!    total energy              =     -22.23751291 Ry
     estimated scf accuracy    <          4.3E-09 Ry

     The total energy is the sum of the following terms:
     one-electron contribution =    -138.96626074 Ry
     hartree contribution      =      70.57855189 Ry
     xc contribution           =      -9.35805403 Ry
     ewald contribution        =      55.50824997 Ry

     convergence has been achieved in  15 iterations

     Forces acting on atoms (cartesian axes, Ry/au):

     atom    1 type  1   force =    -4.91465446    0.00000000    3.42699731
     atom    2 type  1   force =     4.91480354    0.00000000   -3.42702075
     atom    3 type  2   force =    -0.12408158    0.00000000    0.02865068
     atom    4 type  2   force =     0.12393250    0.00000000   -0.02862724
     The non-local contrib.  to forces
     atom    1 type  1   force =    -3.79562367    0.00000000    3.11010919
     atom    2 type  1   force =     3.79612164    0.00000000   -3.11016515
     atom    3 type  2   force =     0.00000000    0.00000000    0.00000000
     atom    4 type  2   force =     0.00000000    0.00000000    0.00000000
     The ionic contribution  to forces
     atom    1 type  1   force =   -13.25680451    0.00000000    4.85672676
     atom    2 type  1   force =    13.25680451    0.00000000   -4.85672676
     atom    3 type  2   force =    -4.30180323    0.00000000    0.00975972
     atom    4 type  2   force =     4.30180323    0.00000000   -0.00975972
     The local contribution  to forces
     atom    1 type  1   force =    12.13796040    0.00000000   -4.53985539
     atom    2 type  1   force =   -12.13807120    0.00000000    4.53986231
     atom    3 type  2   force =     4.17782650    0.00000000    0.01887973
     atom    4 type  2   force =    -4.17781446    0.00000000   -0.01887904
     The core correction contribution to forces
     atom    1 type  1   force =     0.00000000    0.00000000    0.00000000
     atom    2 type  1   force =     0.00000000    0.00000000    0.00000000
     atom    3 type  2   force =     0.00000000    0.00000000    0.00000000
     atom    4 type  2   force =     0.00000000    0.00000000    0.00000000
     The Hubbard contrib.    to forces
     atom    1 type  1   force =     0.00000000    0.00000000    0.00000000
     atom    2 type  1   force =     0.00000000    0.00000000    0.00000000
     atom    3 type  2   force =     0.00000000    0.00000000    0.00000000
     atom    4 type  2   force =     0.00000000    0.00000000    0.00000000
     The SCF correction term to forces
     atom    1 type  1   force =    -0.00010949    0.00000000    0.00000548
     atom    2 type  1   force =     0.00002579    0.00000000   -0.00000243
     atom    3 type  2   force =    -0.00002766   -0.00000000   -0.00000004
     atom    4 type  2   force =     0.00002093    0.00000000    0.00000026

     Total force =     8.475276     Total SCF correction =     0.000118

     Writing all to output data dir ./chain.save/ :
     XML data file, charge density, pseudopotentials, collected wavefunctions

     init_run     :      0.45s CPU      0.30s WALL (       1 calls)
     electrons    :      6.00s CPU      3.03s WALL (       1 calls)
     forces       :      0.02s CPU      0.01s WALL (       1 calls)

     Called by init_run:
     wfcinit      :      0.26s CPU      0.13s WALL (       1 calls)
     wfcinit:atom :      0.00s CPU      0.00s WALL (       6 calls)
     wfcinit:wfcr :      0.25s CPU      0.13s WALL (       6 calls)
     potinit      :      0.01s CPU      0.00s WALL (       1 calls)
     hinit0       :      0.16s CPU      0.14s WALL (       1 calls)

     Called by electrons:
     c_bands      :      5.02s CPU      2.54s WALL (      15 calls)
     sum_band     :      0.82s CPU      0.41s WALL (      15 calls)
     v_of_rho     :      0.06s CPU      0.03s WALL (      16 calls)
     v_h          :      0.01s CPU      0.01s WALL (      16 calls)
     v_xc         :      0.05s CPU      0.02s WALL (      16 calls)
     mix_rho      :      0.09s CPU      0.05s WALL (      15 calls)

     Called by c_bands:
     init_us_2    :      0.02s CPU      0.01s WALL (     192 calls)
     cegterg      :      4.99s CPU      2.52s WALL (      90 calls)

     Called by sum_band:
     sum_band:wei :      0.00s CPU      0.00s WALL (      15 calls)
     sum_band:loo :      0.74s CPU      0.38s WALL (      15 calls)
     sum_band:buf :      0.00s CPU      0.00s WALL (      90 calls)
     sum_band:ini :      0.01s CPU      0.01s WALL (      90 calls)

     Called by *egterg:
     cdiaghg      :      0.02s CPU      0.01s WALL (     336 calls)
     cegterg:over :      0.50s CPU      0.24s WALL (     246 calls)
     cegterg:upda :      0.53s CPU      0.26s WALL (     246 calls)
     cegterg:last :      0.13s CPU      0.06s WALL (     187 calls)
     h_psi        :      3.73s CPU      1.90s WALL (     342 calls)
     g_psi        :      0.01s CPU      0.01s WALL (     246 calls)

     Called by h_psi:
     h_psi:calbec :      0.06s CPU      0.03s WALL (     342 calls)
     vloc_psi     :      3.41s CPU      1.74s WALL (     342 calls)
                                        0.00s GPU  (     342 calls)
     add_vuspsi   :      0.00s CPU      0.00s WALL (     342 calls)

     General routines
     calbec       :      0.06s CPU      0.03s WALL (     366 calls)
     fft          :      0.22s CPU      0.17s WALL (      49 calls)
     ffts         :      0.02s CPU      0.01s WALL (      15 calls)
     fftw         :      3.62s CPU      1.84s WALL (    3036 calls)

     Parallel routines

     PWSCF        :      6.51s CPU      3.38s WALL


   This run was terminated on:  12: 9:37   1Jun2026            

=------------------------------------------------------------------------------=
   JOB DONE.
=------------------------------------------------------------------------------=
