
     Program PWSCF v.7.5 starts on 29May2026 at 10:20:32 

     This program is part of the open-source Quantum ESPRESSO suite
     for quantum simulation of materials; please cite
         "P. Giannozzi et al., J. Phys.:Condens. Matter 21 395502 (2009);
         "P. Giannozzi et al., J. Phys.:Condens. Matter 29 465901 (2017);
         "P. Giannozzi et al., J. Chem. Phys. 152 154105 (2020);
          URL http://www.quantum-espresso.org", 
     in publications or presentations arising from this work. More details at
     http://www.quantum-espresso.org/quote

     Parallel version (MPI & OpenMP), running on       4 processor cores
     Number of MPI processes:                 2
     Threads/MPI process:                     2

     MPI processes distributed on     1 nodes
     1856 MiB available memory on the printing compute node when the environment starts

     Reading input from scf.in
     Message from routine read_cards :
     DEPRECATED: no units specified in ATOMIC_POSITIONS card
     Message from routine read_cards :
     ATOMIC_POSITIONS: units set to alat

     Current dimensions of program PWSCF are:
     Max number of different atomic species (ntypx) = 10
     Max number of k-points (npk) =  40000
     Max angular momentum in pseudopotentials (lmaxx) =  4

     R & G space division:  proc/nbgrp/npool/nimage =       2
     Subspace diagonalization in iterative solution of the eigenvalue problem:
     a serial algorithm will be used


     Parallelization info
     --------------------
     sticks:   dense  smooth     PW     G-vecs:    dense   smooth      PW
     Min          60      60     21                  469      469      90
     Max          61      61     22                  472      472      91
     Sum         121     121     43                  941      941     181

     Using Slab Decomposition



     bravais-lattice index     =            2
     lattice parameter (alat)  =       7.5000  a.u.
     unit-cell volume          =     105.4688 (a.u.)^3
     number of atoms/cell      =            1
     number of atomic types    =            1
     number of electrons       =         3.00
     number of Kohn-Sham states=           20
     kinetic-energy cutoff     =      16.0000  Ry
     charge density cutoff     =      64.0000  Ry
     scf convergence threshold =      1.0E-06
     mixing beta               =       0.7000
     number of iterations used =            8  plain     mixing
     Exchange-correlation=  SLA  PZ   NOGX NOGC
                           (   1   1   0   0   0   0   0)

     celldm(1)=   7.500000  celldm(2)=   0.000000  celldm(3)=   0.000000
     celldm(4)=   0.000000  celldm(5)=   0.000000  celldm(6)=   0.000000

     crystal axes: (cart. coord. in units of alat)
               a(1) = (  -0.500000   0.000000   0.500000 )  
               a(2) = (   0.000000   0.500000   0.500000 )  
               a(3) = (  -0.500000   0.500000   0.000000 )  

     reciprocal axes: (cart. coord. in units 2 pi/alat)
               b(1) = ( -1.000000 -1.000000  1.000000 )  
               b(2) = (  1.000000  1.000000  1.000000 )  
               b(3) = ( -1.000000  1.000000 -1.000000 )  


     PseudoPot. # 1 for Al read from file:
     ./Al.vbc.UPF
     MD5 check sum: c34c8b369e81ee50c191f4345b5f621b
     Pseudo is Norm-conserving, Zval =  3.0
     Generated by new atomic code, or converted to UPF format
     Using radial grid of  171 points,  2 beta functions with: 
                l(1) =   0
                l(2) =   1

     atomic species   valence    mass     pseudopotential
     Al                3.00    26.98000     Al( 1.00)

     48 Sym. Ops., with inversion, found



   Cartesian axes

     site n.     atom                  positions (alat units)
         1        Al     tau(   1) = (   0.0000000   0.0000000   0.0000000  )

     number of k points=     8  Methfessel-Paxton smearing, width (Ry)=  0.0220
                       cart. coord. in units 2pi/alat
        k(    1) = (   0.0000000   0.0000000   0.0000000), wk =   0.0312500
        k(    2) = (  -0.2500000   0.2500000  -0.2500000), wk =   0.2500000
        k(    3) = (   0.5000000  -0.5000000   0.5000000), wk =   0.1250000
        k(    4) = (   0.0000000   0.5000000   0.0000000), wk =   0.1875000
        k(    5) = (   0.7500000  -0.2500000   0.7500000), wk =   0.7500000
        k(    6) = (   0.5000000   0.0000000   0.5000000), wk =   0.3750000
        k(    7) = (   0.0000000  -1.0000000   0.0000000), wk =   0.0937500
        k(    8) = (  -0.5000000  -1.0000000   0.0000000), wk =   0.1875000

     Dense  grid:      941 G-vectors     FFT dimensions: (  15,  15,  15)

     Estimated max dynamical RAM per process >       0.68 MB

     Estimated total dynamical RAM >       1.36 MB

     Initial potential from superposition of free atoms

     starting charge       2.9979, renormalised to       3.0000
     Starting wfcs are    9 randomized atomic wfcs +   11 random wfcs

     total cpu time spent up to now is        0.1 secs

     per-process dynamical memory:     6.4 Mb

     Self-consistent Calculation

     iteration #  1     ecut=    16.00 Ry     beta= 0.70
     Davidson diagonalization with overlap
     ethr =  1.00E-02,  avg # of iterations =  5.9
     Minimization algorithm failed to find Fermi energy: reverting to bisection
     Possible cause: smearing is larger than the electronic band-gap.

     Threshold (ethr) on eigenvalues was too large:
     Diagonalizing with lowered threshold

     Davidson diagonalization with overlap
     ethr =  2.12E-04,  avg # of iterations =  2.0
     Minimization algorithm failed to find Fermi energy: reverting to bisection
     Possible cause: smearing is larger than the electronic band-gap.

     total cpu time spent up to now is        0.4 secs

     total energy              =      -4.16667366 Ry
     estimated scf accuracy    <       0.00636644 Ry

     iteration #  2     ecut=    16.00 Ry     beta= 0.70
     Davidson diagonalization with overlap
     ethr =  2.12E-04,  avg # of iterations =  1.0
     Minimization algorithm failed to find Fermi energy: reverting to bisection
     Possible cause: smearing is larger than the electronic band-gap.

     total cpu time spent up to now is        0.5 secs

     total energy              =      -4.16666399 Ry
     estimated scf accuracy    <       0.00051066 Ry

     iteration #  3     ecut=    16.00 Ry     beta= 0.70
     Davidson diagonalization with overlap
     ethr =  1.70E-05,  avg # of iterations =  2.5
     Minimization algorithm failed to find Fermi energy: reverting to bisection
     Possible cause: smearing is larger than the electronic band-gap.

     total cpu time spent up to now is        0.6 secs

     End of self-consistent calculation

          k = 0.0000 0.0000 0.0000 (   113 PWs)   bands (ev):

    -3.1867  21.1854  21.1854  21.1854  22.5617  22.5617  22.5617  25.0720
    28.4742  28.4742  31.0283  33.2355  33.2355  33.2355  40.6825  64.4622
    64.4623  64.4628  66.8491  66.8585

          k =-0.2500 0.2500-0.2500 (   117 PWs)   bands (ev):

    -1.4183  11.7912  19.3988  19.3988  22.9607  23.3442  23.3442  27.3735
    27.6613  27.6613  33.4543  39.8832  41.5247  41.5247  46.7230  50.1849
    50.1849  54.4178  67.0050  67.0071

          k = 0.5000-0.5000 0.5000 (   120 PWs)   bands (ev):

     3.5959   3.8237  19.9023  19.9023  19.9641  19.9641  23.7103  23.9931
    34.4314  34.4314  39.3111  39.3111  39.7577  45.8678  53.7637  54.8663
    54.8663  55.5683  56.7445  56.7446

          k = 0.0000 0.5000 0.0000 (   125 PWs)   bands (ev):

    -0.8368  15.7909  15.9743  15.9743  16.6902  19.6179  30.6722  30.7558
    30.7558  35.1779  35.7118  36.5627  36.5627  40.1937  50.6444  50.7292
    50.7293  52.8641  56.5452  66.2121

          k = 0.7500-0.2500 0.7500 (   113 PWs)   bands (ev):

     3.1401   7.5243  12.0334  15.5090  17.2208  24.6985  27.4537  30.4185
    33.6024  34.9608  40.2282  41.4511  44.3068  46.8969  47.9287  50.7497
    52.6875  53.8142  55.6620  58.7458

          k = 0.5000 0.0000 0.5000 (   117 PWs)   bands (ev):

     1.4592   9.5219  11.1636  17.9541  19.9878  25.7706  26.2414  27.3618
    30.0146  34.6316  36.7454  39.4256  45.2649  45.8417  51.1683  51.5986
    54.3423  55.4249  55.4924  58.8714

          k = 0.0000-1.0000 0.0000 (   116 PWs)   bands (ev):

     5.3365   6.6419  13.4796  14.0585  14.0585  17.6953  35.1779  36.8685
    36.8685  41.3546  41.3546  41.4715  42.0208  44.8895  50.3012  50.3012
    50.4280  50.4280  51.0179  51.4292

          k =-0.5000-1.0000 0.0000 (   108 PWs)   bands (ev):

     7.4224   7.4224   8.3704   9.6432  24.4710  24.4710  24.8716  27.2298
    37.1677  41.9081  42.7427  42.7427  44.6500  44.6500  45.0935  46.3959
    55.6822  55.6822  58.2977  61.6522

     the Fermi energy is     7.6422 ev

!    total energy              =      -4.16666592 Ry
     estimated scf accuracy    <       0.00000016 Ry
     smearing contrib. (-TS)   =      -0.00130399 Ry
     internal energy E=F+TS    =      -4.16536193 Ry

     The total energy is F=E-TS. E is the sum of the following terms:
     one-electron contribution =       2.96100436 Ry
     hartree contribution      =       0.01136244 Ry
     xc contribution           =      -1.63589424 Ry
     ewald contribution        =      -5.50183450 Ry

     convergence has been achieved in   3 iterations

     Writing all to output data dir ./Al.save/ :
     XML data file, charge density, pseudopotentials, collected wavefunctions

     init_run     :      0.05s CPU      0.03s WALL (       1 calls)
     electrons    :      1.08s CPU      0.55s WALL (       1 calls)

     Called by init_run:
     wfcinit      :      0.02s CPU      0.01s WALL (       1 calls)
     potinit      :      0.00s CPU      0.00s WALL (       1 calls)
     hinit0       :      0.03s CPU      0.02s WALL (       1 calls)

     Called by electrons:
     c_bands      :      0.78s CPU      0.40s WALL (       4 calls)
     sum_band     :      0.16s CPU      0.08s WALL (       4 calls)
     v_of_rho     :      0.06s CPU      0.03s WALL (       4 calls)
     mix_rho      :      0.06s CPU      0.03s WALL (       4 calls)

     Called by c_bands:
     init_us_2    :      0.00s CPU      0.00s WALL (      72 calls)
     cegterg      :      0.78s CPU      0.40s WALL (      32 calls)

     Called by *egterg:
     cdiaghg      :      0.47s CPU      0.23s WALL (     115 calls)
     h_psi        :      0.20s CPU      0.11s WALL (     131 calls)
     g_psi        :      0.00s CPU      0.00s WALL (      91 calls)

     Called by h_psi:
     h_psi:calbec :      0.00s CPU      0.00s WALL (     131 calls)
     vloc_psi     :      0.09s CPU      0.06s WALL (     131 calls)
                                        0.00s GPU  (     131 calls)
     add_vuspsi   :      0.00s CPU      0.00s WALL (     131 calls)

     General routines
     calbec       :      0.00s CPU      0.00s WALL (     131 calls)
     fft          :      0.07s CPU      0.04s WALL (      12 calls)
     ffts         :      0.00s CPU      0.00s WALL (       4 calls)
     fftw         :      0.15s CPU      0.08s WALL (    4228 calls)

     Parallel routines

     PWSCF        :      1.26s CPU      0.68s WALL


   This run was terminated on:  10:20:32  29May2026            

=------------------------------------------------------------------------------=
   JOB DONE.
=------------------------------------------------------------------------------=
