
     Program PWSCF v.7.4.1 starts on  4Sep2025 at 15: 9:23 

     This program is part of the open-source Quantum ESPRESSO suite
     for quantum simulation of materials; please cite
         "P. Giannozzi et al., J. Phys.:Condens. Matter 21 395502 (2009);
         "P. Giannozzi et al., J. Phys.:Condens. Matter 29 465901 (2017);
         "P. Giannozzi et al., J. Chem. Phys. 152 154105 (2020);
          URL http://www.quantum-espresso.org", 
     in publications or presentations arising from this work. More details at
     http://www.quantum-espresso.org/quote

     Parallel version (MPI & OpenMP), running on       8 processor cores
     Number of MPI processes:                 8
     Threads/MPI process:                     1

     MPI processes distributed on     1 nodes
     35861 MiB available memory on the printing compute node when the environment starts

     Waiting for input...
     Reading input from standard input

     Current dimensions of program PWSCF are:
     Max number of different atomic species (ntypx) = 10
     Max number of k-points (npk) =  40000
     Max angular momentum in pseudopotentials (lmaxx) =  4
     file H.pz-vbc.UPF: wavefunction(s)  1S renormalized

     K-points division:     npool     =       2
     R & G space division:  proc/nbgrp/npool/nimage =       4
     Subspace diagonalization in iterative solution of the eigenvalue problem:
     a serial algorithm will be used


     Parallelization info
     --------------------
     sticks:   dense  smooth     PW     G-vecs:    dense   smooth      PW
     Min         447     447    180                 2218     2218     576
     Max         448     448    182                 2219     2219     577
     Sum        1789    1789    725                 8875     8875    2305

     Using Slab Decomposition



     bravais-lattice index     =            8
     lattice parameter (alat)  =      15.0000  a.u.
     unit-cell volume          =     525.0353 (a.u.)^3
     number of atoms/cell      =            4
     number of atomic types    =            2
     number of electrons       =        10.00
     number of Kohn-Sham states=           25
     kinetic-energy cutoff     =      25.0000  Ry
     charge density cutoff     =     100.0000  Ry
     scf convergence threshold =      1.0E-08
     mixing beta               =       0.4000
     number of iterations used =            8  plain     mixing
     Exchange-correlation=  SLA  PZ   NOGX NOGC
                           (   1   1   0   0   0   0   0)

     celldm(1)=  15.000000  celldm(2)=   1.000000  celldm(3)=   0.155566
     celldm(4)=   0.000000  celldm(5)=   0.000000  celldm(6)=   0.000000

     crystal axes: (cart. coord. in units of alat)
               a(1) = (   1.000000   0.000000   0.000000 )  
               a(2) = (   0.000000   1.000000   0.000000 )  
               a(3) = (   0.000000   0.000000   0.155566 )  

     reciprocal axes: (cart. coord. in units 2 pi/alat)
               b(1) = (  1.000000  0.000000  0.000000 )  
               b(2) = (  0.000000  1.000000  0.000000 )  
               b(3) = (  0.000000  0.000000  6.428140 )  


     PseudoPot. # 1 for C  read from file:
     ./C.pz-vbc.UPF
     MD5 check sum: ab53dd623bfeb79c5a7b057bc96eae20
     Pseudo is Norm-conserving, Zval =  4.0
     Generated by new atomic code, or converted to UPF format
     Using radial grid of  269 points,  1 beta functions with: 
                l(1) =   0

     PseudoPot. # 2 for H  read from file:
     ./H.pz-vbc.UPF
     MD5 check sum: 90becb985b714f09656c73597998d266
     Pseudo is Norm-conserving, Zval =  1.0
     Generated by new atomic code, or converted to UPF format
     Using radial grid of  131 points,  0 beta functions with: 

     atomic species   valence    mass     pseudopotential
     C                 4.00     1.00000     C ( 1.00)
     H                 1.00     1.00000     H ( 1.00)

      2 Sym. Ops. (no inversion) found


                                    s                        frac. trans.

      isym =  1     identity                                     

 cryst.   s( 1) = (     1          0          0      )
                  (     0          1          0      )
                  (     0          0          1      )

 cart.    s( 1) = (  1.0000000  0.0000000  0.0000000 )
                  (  0.0000000  1.0000000  0.0000000 )
                  (  0.0000000  0.0000000  1.0000000 )


      isym =  2     inv. 180 deg rotation - cart. axis [0,1,0]   

 cryst.   s( 2) = (     1          0          0      )
                  (     0         -1          0      )
                  (     0          0          1      )

 cart.    s( 2) = (  1.0000000  0.0000000  0.0000000 )
                  (  0.0000000 -1.0000000  0.0000000 )
                  (  0.0000000  0.0000000  1.0000000 )


     point group C_s (m)    
     there are  2 classes
     the character table:

       E     s    
A'     1.00  1.00
A''    1.00 -1.00

     the symmetry operations in each class and the name of the first element:

     E        1
          identity                                               
     s        2
          inv. 180 deg rotation - cart. axis [0,1,0]             

   Cartesian axes

     site n.     atom                  positions (alat units)
         1        C      tau(   1) = (   0.0000000   0.0000000  -0.0737980  )
         2        C      tau(   2) = (   0.0816792   0.0000000   0.0737984  )
         3        H      tau(   3) = (  -0.1356812   0.0000000  -0.0743665  )
         4        H      tau(   4) = (   0.2173604   0.0000000   0.0743669  )

   Crystallographic axes

     site n.     atom                  positions (cryst. coord.)
         1        C      tau(   1) = (  0.0000000  0.0000000 -0.4743839  )
         2        C      tau(   2) = (  0.0816792  0.0000000  0.4743866  )
         3        H      tau(   3) = ( -0.1356812  0.0000000 -0.4780383  )
         4        H      tau(   4) = (  0.2173604  0.0000000  0.4780410  )

     number of k points=     6
                       cart. coord. in units 2pi/alat
        k(    1) = (   0.0000000   0.0000000   0.0000000), wk =   0.2000000
        k(    2) = (   0.0000000   0.0000000   0.6428140), wk =   0.4000000
        k(    3) = (   0.0000000   0.0000000   1.2856280), wk =   0.4000000
        k(    4) = (   0.0000000   0.0000000   1.9284419), wk =   0.4000000
        k(    5) = (   0.0000000   0.0000000   2.5712559), wk =   0.4000000
        k(    6) = (   0.0000000   0.0000000  -3.2140699), wk =   0.2000000

                       cryst. coord.
        k(    1) = (   0.0000000   0.0000000   0.0000000), wk =   0.2000000
        k(    2) = (   0.0000000   0.0000000   0.1000000), wk =   0.4000000
        k(    3) = (   0.0000000   0.0000000   0.2000000), wk =   0.4000000
        k(    4) = (   0.0000000   0.0000000   0.3000000), wk =   0.4000000
        k(    5) = (   0.0000000   0.0000000   0.4000000), wk =   0.4000000
        k(    6) = (   0.0000000   0.0000000  -0.5000000), wk =   0.2000000

     Dense  grid:     8875 G-vectors     FFT dimensions: (  48,  48,   8)

     Dynamical RAM for                 wfc:       0.11 MB

     Dynamical RAM for     wfc (w. buffer):       0.42 MB

     Dynamical RAM for           str. fact:       0.07 MB

     Dynamical RAM for           local pot:       0.00 MB

     Dynamical RAM for          nlocal pot:       0.01 MB

     Dynamical RAM for                qrad:       0.02 MB

     Dynamical RAM for          rho,v,vnew:       0.21 MB

     Dynamical RAM for               rhoin:       0.07 MB

     Dynamical RAM for            rho*nmix:       0.54 MB

     Dynamical RAM for           G-vectors:       0.14 MB

     Dynamical RAM for          h,s,v(r/c):       0.11 MB

     Dynamical RAM for          <psi|beta>:       0.00 MB

     Dynamical RAM for                 psi:       0.21 MB

     Dynamical RAM for                hpsi:       0.21 MB

     Dynamical RAM for      wfcinit/wfcrot:       0.23 MB

     Estimated static dynamical RAM per process >       1.21 MB

     Estimated max dynamical RAM per process >       2.29 MB

     Estimated total dynamical RAM >      16.16 MB

     Initial potential from superposition of free atoms

     starting charge       9.9999, renormalised to      10.0000

     negative rho (up, down):  1.502E-03 0.000E+00
     Starting wfcs are   10 randomized atomic wfcs +   15 random wfcs

     total cpu time spent up to now is        0.0 secs

     Self-consistent Calculation

     iteration #  1     ecut=    25.00 Ry     beta= 0.40
     Davidson diagonalization with overlap

---- Real-time Memory Report at c_bands before calling an iterative solver
            40 MiB given to the printing process from OS
             0 MiB allocation reported by mallinfo(arena+hblkhd)
         35813 MiB available memory on the node where the printing process lives
------------------
     ethr =  1.00E-02,  avg # of iterations =  7.2

     negative rho (up, down):  7.612E-04 0.000E+00

     total cpu time spent up to now is        0.1 secs

     total energy              =     -17.04840917 Ry
     estimated scf accuracy    <       4.99464527 Ry

     iteration #  2     ecut=    25.00 Ry     beta= 0.40
     Davidson diagonalization with overlap

---- Real-time Memory Report at c_bands before calling an iterative solver
            41 MiB given to the printing process from OS
             0 MiB allocation reported by mallinfo(arena+hblkhd)
         35806 MiB available memory on the node where the printing process lives
------------------
     ethr =  1.00E-02,  avg # of iterations =  2.7

     negative rho (up, down):  3.151E-04 0.000E+00

     total cpu time spent up to now is        0.1 secs

     total energy              =     -18.04700824 Ry
     estimated scf accuracy    <       0.54359824 Ry

     iteration #  3     ecut=    25.00 Ry     beta= 0.40
     Davidson diagonalization with overlap

---- Real-time Memory Report at c_bands before calling an iterative solver
            41 MiB given to the printing process from OS
             0 MiB allocation reported by mallinfo(arena+hblkhd)
         35806 MiB available memory on the node where the printing process lives
------------------
     ethr =  5.44E-03,  avg # of iterations =  1.0

     negative rho (up, down):  2.215E-06 0.000E+00

     total cpu time spent up to now is        0.1 secs

     total energy              =     -18.08091147 Ry
     estimated scf accuracy    <       0.07998666 Ry

     iteration #  4     ecut=    25.00 Ry     beta= 0.40
     Davidson diagonalization with overlap

---- Real-time Memory Report at c_bands before calling an iterative solver
            42 MiB given to the printing process from OS
             0 MiB allocation reported by mallinfo(arena+hblkhd)
         35806 MiB available memory on the node where the printing process lives
------------------
     ethr =  8.00E-04,  avg # of iterations =  2.0

     negative rho (up, down):  2.882E-06 0.000E+00

     total cpu time spent up to now is        0.1 secs

     total energy              =     -18.11071452 Ry
     estimated scf accuracy    <       0.06286832 Ry

     iteration #  5     ecut=    25.00 Ry     beta= 0.40
     Davidson diagonalization with overlap

---- Real-time Memory Report at c_bands before calling an iterative solver
            42 MiB given to the printing process from OS
             0 MiB allocation reported by mallinfo(arena+hblkhd)
         35809 MiB available memory on the node where the printing process lives
------------------
     ethr =  6.29E-04,  avg # of iterations =  1.0

     negative rho (up, down):  2.285E-06 0.000E+00

     total cpu time spent up to now is        0.1 secs

     total energy              =     -18.10819938 Ry
     estimated scf accuracy    <       0.04292766 Ry

     iteration #  6     ecut=    25.00 Ry     beta= 0.40
     Davidson diagonalization with overlap

---- Real-time Memory Report at c_bands before calling an iterative solver
            42 MiB given to the printing process from OS
             0 MiB allocation reported by mallinfo(arena+hblkhd)
         35806 MiB available memory on the node where the printing process lives
------------------
     ethr =  4.29E-04,  avg # of iterations =  1.0

     negative rho (up, down):  3.429E-06 0.000E+00

     total cpu time spent up to now is        0.2 secs

     total energy              =     -18.09271688 Ry
     estimated scf accuracy    <       0.03620974 Ry

     iteration #  7     ecut=    25.00 Ry     beta= 0.40
     Davidson diagonalization with overlap

---- Real-time Memory Report at c_bands before calling an iterative solver
            42 MiB given to the printing process from OS
             0 MiB allocation reported by mallinfo(arena+hblkhd)
         35803 MiB available memory on the node where the printing process lives
------------------
     ethr =  3.62E-04,  avg # of iterations =  1.3

     total cpu time spent up to now is        0.2 secs

     total energy              =     -18.10929736 Ry
     estimated scf accuracy    <       0.05137719 Ry

     iteration #  8     ecut=    25.00 Ry     beta= 0.40
     Davidson diagonalization with overlap

---- Real-time Memory Report at c_bands before calling an iterative solver
            42 MiB given to the printing process from OS
             0 MiB allocation reported by mallinfo(arena+hblkhd)
         35799 MiB available memory on the node where the printing process lives
------------------
     ethr =  3.62E-04,  avg # of iterations =  1.0

     total cpu time spent up to now is        0.2 secs

     total energy              =     -18.10578631 Ry
     estimated scf accuracy    <       0.03555274 Ry

     iteration #  9     ecut=    25.00 Ry     beta= 0.40
     Davidson diagonalization with overlap

---- Real-time Memory Report at c_bands before calling an iterative solver
            42 MiB given to the printing process from OS
             0 MiB allocation reported by mallinfo(arena+hblkhd)
         35796 MiB available memory on the node where the printing process lives
------------------
     ethr =  3.56E-04,  avg # of iterations =  1.0

     total cpu time spent up to now is        0.2 secs

     total energy              =     -18.10043073 Ry
     estimated scf accuracy    <       0.02512006 Ry

     iteration # 10     ecut=    25.00 Ry     beta= 0.40
     Davidson diagonalization with overlap

---- Real-time Memory Report at c_bands before calling an iterative solver
            42 MiB given to the printing process from OS
             0 MiB allocation reported by mallinfo(arena+hblkhd)
         35793 MiB available memory on the node where the printing process lives
------------------
     ethr =  2.51E-04,  avg # of iterations =  1.0

     total cpu time spent up to now is        0.2 secs

     total energy              =     -18.10323919 Ry
     estimated scf accuracy    <       0.00033001 Ry

     iteration # 11     ecut=    25.00 Ry     beta= 0.40
     Davidson diagonalization with overlap

---- Real-time Memory Report at c_bands before calling an iterative solver
            42 MiB given to the printing process from OS
             0 MiB allocation reported by mallinfo(arena+hblkhd)
         35789 MiB available memory on the node where the printing process lives
------------------
     ethr =  3.30E-06,  avg # of iterations =  4.7

     total cpu time spent up to now is        0.2 secs

     total energy              =     -18.10073957 Ry
     estimated scf accuracy    <       0.02278322 Ry

     iteration # 12     ecut=    25.00 Ry     beta= 0.40
     Davidson diagonalization with overlap

---- Real-time Memory Report at c_bands before calling an iterative solver
            42 MiB given to the printing process from OS
             0 MiB allocation reported by mallinfo(arena+hblkhd)
         35803 MiB available memory on the node where the printing process lives
------------------
     ethr =  3.30E-06,  avg # of iterations =  2.5

     total cpu time spent up to now is        0.3 secs

     total energy              =     -18.10371866 Ry
     estimated scf accuracy    <       0.00165905 Ry

     iteration # 13     ecut=    25.00 Ry     beta= 0.40
     Davidson diagonalization with overlap

---- Real-time Memory Report at c_bands before calling an iterative solver
            42 MiB given to the printing process from OS
             0 MiB allocation reported by mallinfo(arena+hblkhd)
         35803 MiB available memory on the node where the printing process lives
------------------
     ethr =  3.30E-06,  avg # of iterations =  1.0

     total cpu time spent up to now is        0.3 secs

     total energy              =     -18.10362680 Ry
     estimated scf accuracy    <       0.00158512 Ry

     iteration # 14     ecut=    25.00 Ry     beta= 0.40
     Davidson diagonalization with overlap

---- Real-time Memory Report at c_bands before calling an iterative solver
            42 MiB given to the printing process from OS
             0 MiB allocation reported by mallinfo(arena+hblkhd)
         35803 MiB available memory on the node where the printing process lives
------------------
     ethr =  3.30E-06,  avg # of iterations =  1.0

     total cpu time spent up to now is        0.3 secs

     total energy              =     -18.10357374 Ry
     estimated scf accuracy    <       0.00133135 Ry

     iteration # 15     ecut=    25.00 Ry     beta= 0.40
     Davidson diagonalization with overlap

---- Real-time Memory Report at c_bands before calling an iterative solver
            42 MiB given to the printing process from OS
             0 MiB allocation reported by mallinfo(arena+hblkhd)
         35803 MiB available memory on the node where the printing process lives
------------------
     ethr =  3.30E-06,  avg # of iterations =  1.0

     total cpu time spent up to now is        0.3 secs

     total energy              =     -18.10352826 Ry
     estimated scf accuracy    <       0.00117315 Ry

     iteration # 16     ecut=    25.00 Ry     beta= 0.40
     Davidson diagonalization with overlap

---- Real-time Memory Report at c_bands before calling an iterative solver
            42 MiB given to the printing process from OS
             0 MiB allocation reported by mallinfo(arena+hblkhd)
         35803 MiB available memory on the node where the printing process lives
------------------
     ethr =  3.30E-06,  avg # of iterations =  1.0

     total cpu time spent up to now is        0.3 secs

     total energy              =     -18.10339711 Ry
     estimated scf accuracy    <       0.00103904 Ry

     iteration # 17     ecut=    25.00 Ry     beta= 0.40
     Davidson diagonalization with overlap

---- Real-time Memory Report at c_bands before calling an iterative solver
            42 MiB given to the printing process from OS
             0 MiB allocation reported by mallinfo(arena+hblkhd)
         35803 MiB available memory on the node where the printing process lives
------------------
     ethr =  3.30E-06,  avg # of iterations =  1.0

     total cpu time spent up to now is        0.3 secs

     total energy              =     -18.10326904 Ry
     estimated scf accuracy    <       0.00066964 Ry

     iteration # 18     ecut=    25.00 Ry     beta= 0.40
     Davidson diagonalization with overlap

---- Real-time Memory Report at c_bands before calling an iterative solver
            42 MiB given to the printing process from OS
             0 MiB allocation reported by mallinfo(arena+hblkhd)
         35803 MiB available memory on the node where the printing process lives
------------------
     ethr =  3.30E-06,  avg # of iterations =  1.0

     total cpu time spent up to now is        0.4 secs

     total energy              =     -18.10328246 Ry
     estimated scf accuracy    <       0.00030411 Ry

     iteration # 19     ecut=    25.00 Ry     beta= 0.40
     Davidson diagonalization with overlap

---- Real-time Memory Report at c_bands before calling an iterative solver
            42 MiB given to the printing process from OS
             0 MiB allocation reported by mallinfo(arena+hblkhd)
         35803 MiB available memory on the node where the printing process lives
------------------
     ethr =  3.04E-06,  avg # of iterations =  1.0

     total cpu time spent up to now is        0.4 secs

     total energy              =     -18.10329299 Ry
     estimated scf accuracy    <       0.00031514 Ry

     iteration # 20     ecut=    25.00 Ry     beta= 0.40
     Davidson diagonalization with overlap

---- Real-time Memory Report at c_bands before calling an iterative solver
            42 MiB given to the printing process from OS
             0 MiB allocation reported by mallinfo(arena+hblkhd)
         35803 MiB available memory on the node where the printing process lives
------------------
     ethr =  3.04E-06,  avg # of iterations =  1.0

     total cpu time spent up to now is        0.4 secs

     total energy              =     -18.10312779 Ry
     estimated scf accuracy    <       0.00034659 Ry

     iteration # 21     ecut=    25.00 Ry     beta= 0.40
     Davidson diagonalization with overlap

---- Real-time Memory Report at c_bands before calling an iterative solver
            42 MiB given to the printing process from OS
             0 MiB allocation reported by mallinfo(arena+hblkhd)
         35806 MiB available memory on the node where the printing process lives
------------------
     ethr =  3.04E-06,  avg # of iterations =  2.3

     total cpu time spent up to now is        0.4 secs

     total energy              =     -18.10331181 Ry
     estimated scf accuracy    <       0.02746309 Ry

     iteration # 22     ecut=    25.00 Ry     beta= 0.40
     Davidson diagonalization with overlap

---- Real-time Memory Report at c_bands before calling an iterative solver
            42 MiB given to the printing process from OS
             0 MiB allocation reported by mallinfo(arena+hblkhd)
         35806 MiB available memory on the node where the printing process lives
------------------
     ethr =  3.04E-06,  avg # of iterations =  1.2

     total cpu time spent up to now is        0.4 secs

     total energy              =     -18.10230426 Ry
     estimated scf accuracy    <       0.02283650 Ry

     iteration # 23     ecut=    25.00 Ry     beta= 0.40
     Davidson diagonalization with overlap

---- Real-time Memory Report at c_bands before calling an iterative solver
            42 MiB given to the printing process from OS
             0 MiB allocation reported by mallinfo(arena+hblkhd)
         35806 MiB available memory on the node where the printing process lives
------------------
     ethr =  3.04E-06,  avg # of iterations =  1.5

     total cpu time spent up to now is        0.4 secs

     total energy              =     -18.10332434 Ry
     estimated scf accuracy    <       0.00060363 Ry

     iteration # 24     ecut=    25.00 Ry     beta= 0.40
     Davidson diagonalization with overlap

---- Real-time Memory Report at c_bands before calling an iterative solver
            42 MiB given to the printing process from OS
             0 MiB allocation reported by mallinfo(arena+hblkhd)
         35806 MiB available memory on the node where the printing process lives
------------------
     ethr =  3.04E-06,  avg # of iterations =  1.0

     total cpu time spent up to now is        0.5 secs

     total energy              =     -18.10332600 Ry
     estimated scf accuracy    <       0.00044397 Ry

     iteration # 25     ecut=    25.00 Ry     beta= 0.40
     Davidson diagonalization with overlap

---- Real-time Memory Report at c_bands before calling an iterative solver
            42 MiB given to the printing process from OS
             0 MiB allocation reported by mallinfo(arena+hblkhd)
         35806 MiB available memory on the node where the printing process lives
------------------
     ethr =  3.04E-06,  avg # of iterations =  1.0

     total cpu time spent up to now is        0.5 secs

     total energy              =     -18.10331933 Ry
     estimated scf accuracy    <       0.00044368 Ry

     iteration # 26     ecut=    25.00 Ry     beta= 0.40
     Davidson diagonalization with overlap

---- Real-time Memory Report at c_bands before calling an iterative solver
            42 MiB given to the printing process from OS
             0 MiB allocation reported by mallinfo(arena+hblkhd)
         35806 MiB available memory on the node where the printing process lives
------------------
     ethr =  3.04E-06,  avg # of iterations =  1.0

     total cpu time spent up to now is        0.5 secs

     total energy              =     -18.10327944 Ry
     estimated scf accuracy    <       0.00042384 Ry

     iteration # 27     ecut=    25.00 Ry     beta= 0.40
     Davidson diagonalization with overlap

---- Real-time Memory Report at c_bands before calling an iterative solver
            42 MiB given to the printing process from OS
             0 MiB allocation reported by mallinfo(arena+hblkhd)
         35806 MiB available memory on the node where the printing process lives
------------------
     ethr =  3.04E-06,  avg # of iterations =  1.0

     total cpu time spent up to now is        0.5 secs

     total energy              =     -18.10328816 Ry
     estimated scf accuracy    <       0.00030931 Ry

     iteration # 28     ecut=    25.00 Ry     beta= 0.40
     Davidson diagonalization with overlap

---- Real-time Memory Report at c_bands before calling an iterative solver
            42 MiB given to the printing process from OS
             0 MiB allocation reported by mallinfo(arena+hblkhd)
         35806 MiB available memory on the node where the printing process lives
------------------
     ethr =  3.04E-06,  avg # of iterations =  1.0

     total cpu time spent up to now is        0.5 secs

     total energy              =     -18.10326781 Ry
     estimated scf accuracy    <       0.00033155 Ry

     iteration # 29     ecut=    25.00 Ry     beta= 0.40
     Davidson diagonalization with overlap

---- Real-time Memory Report at c_bands before calling an iterative solver
            42 MiB given to the printing process from OS
             0 MiB allocation reported by mallinfo(arena+hblkhd)
         35806 MiB available memory on the node where the printing process lives
------------------
     ethr =  3.04E-06,  avg # of iterations =  1.0

     total cpu time spent up to now is        0.5 secs

     total energy              =     -18.10327575 Ry
     estimated scf accuracy    <       0.00027228 Ry

     iteration # 30     ecut=    25.00 Ry     beta= 0.40
     Davidson diagonalization with overlap

---- Real-time Memory Report at c_bands before calling an iterative solver
            42 MiB given to the printing process from OS
             0 MiB allocation reported by mallinfo(arena+hblkhd)
         35806 MiB available memory on the node where the printing process lives
------------------
     ethr =  2.72E-06,  avg # of iterations =  1.0

     total cpu time spent up to now is        0.5 secs

     total energy              =     -18.10326713 Ry
     estimated scf accuracy    <       0.00029472 Ry

     iteration # 31     ecut=    25.00 Ry     beta= 0.40
     Davidson diagonalization with overlap

---- Real-time Memory Report at c_bands before calling an iterative solver
            42 MiB given to the printing process from OS
             0 MiB allocation reported by mallinfo(arena+hblkhd)
         35806 MiB available memory on the node where the printing process lives
------------------
     ethr =  2.72E-06,  avg # of iterations =  1.0

     total cpu time spent up to now is        0.6 secs

     total energy              =     -18.10313943 Ry
     estimated scf accuracy    <       0.00026952 Ry

     iteration # 32     ecut=    25.00 Ry     beta= 0.40
     Davidson diagonalization with overlap

---- Real-time Memory Report at c_bands before calling an iterative solver
            42 MiB given to the printing process from OS
             0 MiB allocation reported by mallinfo(arena+hblkhd)
         35806 MiB available memory on the node where the printing process lives
------------------
     ethr =  2.70E-06,  avg # of iterations =  2.0

     total cpu time spent up to now is        0.6 secs

     total energy              =     -18.10430047 Ry
     estimated scf accuracy    <       0.02739367 Ry

     iteration # 33     ecut=    25.00 Ry     beta= 0.40
     Davidson diagonalization with overlap

---- Real-time Memory Report at c_bands before calling an iterative solver
            42 MiB given to the printing process from OS
             0 MiB allocation reported by mallinfo(arena+hblkhd)
         35806 MiB available memory on the node where the printing process lives
------------------
     ethr =  2.70E-06,  avg # of iterations =  1.0

     total cpu time spent up to now is        0.6 secs

     total energy              =     -18.10308905 Ry
     estimated scf accuracy    <       0.02573373 Ry

     iteration # 34     ecut=    25.00 Ry     beta= 0.40
     Davidson diagonalization with overlap

---- Real-time Memory Report at c_bands before calling an iterative solver
            42 MiB given to the printing process from OS
             0 MiB allocation reported by mallinfo(arena+hblkhd)
         35806 MiB available memory on the node where the printing process lives
------------------
     ethr =  2.70E-06,  avg # of iterations =  1.2

     total cpu time spent up to now is        0.6 secs

     total energy              =     -18.10327030 Ry
     estimated scf accuracy    <       0.00027209 Ry

     iteration # 35     ecut=    25.00 Ry     beta= 0.40
     Davidson diagonalization with overlap

---- Real-time Memory Report at c_bands before calling an iterative solver
            42 MiB given to the printing process from OS
             0 MiB allocation reported by mallinfo(arena+hblkhd)
         35806 MiB available memory on the node where the printing process lives
------------------
     ethr =  2.70E-06,  avg # of iterations =  1.0

     total cpu time spent up to now is        0.6 secs

     total energy              =     -18.10327672 Ry
     estimated scf accuracy    <       0.00027830 Ry

     iteration # 36     ecut=    25.00 Ry     beta= 0.40
     Davidson diagonalization with overlap

---- Real-time Memory Report at c_bands before calling an iterative solver
            42 MiB given to the printing process from OS
             0 MiB allocation reported by mallinfo(arena+hblkhd)
         35806 MiB available memory on the node where the printing process lives
------------------
     ethr =  2.70E-06,  avg # of iterations =  1.0

     total cpu time spent up to now is        0.6 secs

     total energy              =     -18.10328040 Ry
     estimated scf accuracy    <       0.00029753 Ry

     iteration # 37     ecut=    25.00 Ry     beta= 0.40
     Davidson diagonalization with overlap

---- Real-time Memory Report at c_bands before calling an iterative solver
            42 MiB given to the printing process from OS
             0 MiB allocation reported by mallinfo(arena+hblkhd)
         35806 MiB available memory on the node where the printing process lives
------------------
     ethr =  2.70E-06,  avg # of iterations =  1.0

     total cpu time spent up to now is        0.7 secs

     total energy              =     -18.10328000 Ry
     estimated scf accuracy    <       0.00030839 Ry

     iteration # 38     ecut=    25.00 Ry     beta= 0.40
     Davidson diagonalization with overlap

---- Real-time Memory Report at c_bands before calling an iterative solver
            42 MiB given to the printing process from OS
             0 MiB allocation reported by mallinfo(arena+hblkhd)
         35806 MiB available memory on the node where the printing process lives
------------------
     ethr =  2.70E-06,  avg # of iterations =  1.0

     total cpu time spent up to now is        0.7 secs

     total energy              =     -18.10327224 Ry
     estimated scf accuracy    <       0.00030714 Ry

     iteration # 39     ecut=    25.00 Ry     beta= 0.40
     Davidson diagonalization with overlap

---- Real-time Memory Report at c_bands before calling an iterative solver
            42 MiB given to the printing process from OS
             0 MiB allocation reported by mallinfo(arena+hblkhd)
         35806 MiB available memory on the node where the printing process lives
------------------
     ethr =  2.70E-06,  avg # of iterations =  1.0

     total cpu time spent up to now is        0.7 secs

     total energy              =     -18.10326870 Ry
     estimated scf accuracy    <       0.00028439 Ry

     iteration # 40     ecut=    25.00 Ry     beta= 0.40
     Davidson diagonalization with overlap

---- Real-time Memory Report at c_bands before calling an iterative solver
            42 MiB given to the printing process from OS
             0 MiB allocation reported by mallinfo(arena+hblkhd)
         35806 MiB available memory on the node where the printing process lives
------------------
     ethr =  2.70E-06,  avg # of iterations =  1.0

     total cpu time spent up to now is        0.7 secs

     total energy              =     -18.10326913 Ry
     estimated scf accuracy    <       0.00027375 Ry

     iteration # 41     ecut=    25.00 Ry     beta= 0.40
     Davidson diagonalization with overlap

---- Real-time Memory Report at c_bands before calling an iterative solver
            42 MiB given to the printing process from OS
             0 MiB allocation reported by mallinfo(arena+hblkhd)
         35806 MiB available memory on the node where the printing process lives
------------------
     ethr =  2.70E-06,  avg # of iterations =  1.0

     total cpu time spent up to now is        0.7 secs

     total energy              =     -18.10327085 Ry
     estimated scf accuracy    <       0.00027498 Ry

     iteration # 42     ecut=    25.00 Ry     beta= 0.40
     Davidson diagonalization with overlap

---- Real-time Memory Report at c_bands before calling an iterative solver
            42 MiB given to the printing process from OS
             0 MiB allocation reported by mallinfo(arena+hblkhd)
         35806 MiB available memory on the node where the printing process lives
------------------
     ethr =  2.70E-06,  avg # of iterations =  1.0

     total cpu time spent up to now is        0.7 secs

     total energy              =     -18.10313795 Ry
     estimated scf accuracy    <       0.00028008 Ry

     iteration # 43     ecut=    25.00 Ry     beta= 0.40
     Davidson diagonalization with overlap

---- Real-time Memory Report at c_bands before calling an iterative solver
            42 MiB given to the printing process from OS
             0 MiB allocation reported by mallinfo(arena+hblkhd)
         35806 MiB available memory on the node where the printing process lives
------------------
     ethr =  2.70E-06,  avg # of iterations =  2.0

     total cpu time spent up to now is        0.7 secs

     total energy              =     -18.10320857 Ry
     estimated scf accuracy    <       0.02739296 Ry

     iteration # 44     ecut=    25.00 Ry     beta= 0.40
     Davidson diagonalization with overlap

---- Real-time Memory Report at c_bands before calling an iterative solver
            42 MiB given to the printing process from OS
             0 MiB allocation reported by mallinfo(arena+hblkhd)
         35806 MiB available memory on the node where the printing process lives
------------------
     ethr =  2.70E-06,  avg # of iterations =  1.3

     total cpu time spent up to now is        0.8 secs

     total energy              =     -18.10325612 Ry
     estimated scf accuracy    <       0.00022965 Ry

     iteration # 45     ecut=    25.00 Ry     beta= 0.40
     Davidson diagonalization with overlap

---- Real-time Memory Report at c_bands before calling an iterative solver
            42 MiB given to the printing process from OS
             0 MiB allocation reported by mallinfo(arena+hblkhd)
         35806 MiB available memory on the node where the printing process lives
------------------
     ethr =  2.30E-06,  avg # of iterations =  1.0

     total cpu time spent up to now is        0.8 secs

     total energy              =     -18.10325939 Ry
     estimated scf accuracy    <       0.00023622 Ry

     iteration # 46     ecut=    25.00 Ry     beta= 0.40
     Davidson diagonalization with overlap

---- Real-time Memory Report at c_bands before calling an iterative solver
            42 MiB given to the printing process from OS
             0 MiB allocation reported by mallinfo(arena+hblkhd)
         35806 MiB available memory on the node where the printing process lives
------------------
     ethr =  2.30E-06,  avg # of iterations =  1.0

     total cpu time spent up to now is        0.8 secs

     total energy              =     -18.10325295 Ry
     estimated scf accuracy    <       0.00024603 Ry

     iteration # 47     ecut=    25.00 Ry     beta= 0.40
     Davidson diagonalization with overlap

---- Real-time Memory Report at c_bands before calling an iterative solver
            42 MiB given to the printing process from OS
             0 MiB allocation reported by mallinfo(arena+hblkhd)
         35806 MiB available memory on the node where the printing process lives
------------------
     ethr =  2.30E-06,  avg # of iterations =  1.0

     total cpu time spent up to now is        0.8 secs

     total energy              =     -18.10324563 Ry
     estimated scf accuracy    <       0.00022711 Ry

     iteration # 48     ecut=    25.00 Ry     beta= 0.40
     Davidson diagonalization with overlap

---- Real-time Memory Report at c_bands before calling an iterative solver
            42 MiB given to the printing process from OS
             0 MiB allocation reported by mallinfo(arena+hblkhd)
         35806 MiB available memory on the node where the printing process lives
------------------
     ethr =  2.27E-06,  avg # of iterations =  1.0

     total cpu time spent up to now is        0.8 secs

     total energy              =     -18.10325357 Ry
     estimated scf accuracy    <       0.02279679 Ry

     iteration # 49     ecut=    25.00 Ry     beta= 0.40
     Davidson diagonalization with overlap

---- Real-time Memory Report at c_bands before calling an iterative solver
            42 MiB given to the printing process from OS
             0 MiB allocation reported by mallinfo(arena+hblkhd)
         35806 MiB available memory on the node where the printing process lives
------------------
     ethr =  2.27E-06,  avg # of iterations =  1.0

     total cpu time spent up to now is        0.8 secs

     total energy              =     -18.10328299 Ry
     estimated scf accuracy    <       0.02257774 Ry

     iteration # 50     ecut=    25.00 Ry     beta= 0.40
     Davidson diagonalization with overlap

---- Real-time Memory Report at c_bands before calling an iterative solver
            42 MiB given to the printing process from OS
             0 MiB allocation reported by mallinfo(arena+hblkhd)
         35806 MiB available memory on the node where the printing process lives
------------------
     ethr =  2.27E-06,  avg # of iterations =  1.0

     total cpu time spent up to now is        0.9 secs

     total energy              =     -18.10335988 Ry
     estimated scf accuracy    <       0.02266503 Ry

     End of self-consistent calculation

     convergence NOT achieved after  50 iterations: stopping

     Writing config to output data dir ./chain.save/ :
     XML data file, charge density

     init_run     :      0.01s CPU      0.01s WALL (       1 calls)
     electrons    :      0.70s CPU      0.83s WALL (       1 calls)

     Called by init_run:
     wfcinit      :      0.00s CPU      0.01s WALL (       1 calls)
     wfcinit:atom :      0.00s CPU      0.00s WALL (       3 calls)
     wfcinit:wfcr :      0.00s CPU      0.01s WALL (       3 calls)
     potinit      :      0.00s CPU      0.00s WALL (       1 calls)
     hinit0       :      0.00s CPU      0.00s WALL (       1 calls)

     Called by electrons:
     c_bands      :      0.57s CPU      0.67s WALL (      50 calls)
     sum_band     :      0.11s CPU      0.13s WALL (      50 calls)
     v_of_rho     :      0.01s CPU      0.01s WALL (      51 calls)
     v_h          :      0.00s CPU      0.00s WALL (      51 calls)
     v_xc         :      0.01s CPU      0.01s WALL (      51 calls)
     mix_rho      :      0.01s CPU      0.01s WALL (      50 calls)

     Called by c_bands:
     init_us_2    :      0.00s CPU      0.00s WALL (     303 calls)
     cegterg      :      0.54s CPU      0.65s WALL (     150 calls)

     Called by sum_band:
     sum_band:wei :      0.00s CPU      0.00s WALL (      50 calls)
     sum_band:loo :      0.10s CPU      0.12s WALL (      50 calls)
     sum_band:buf :      0.00s CPU      0.00s WALL (     150 calls)
     sum_band:ini :      0.00s CPU      0.00s WALL (     150 calls)

     Called by *egterg:
     cdiaghg      :      0.09s CPU      0.11s WALL (     342 calls)
     cegterg:over :      0.02s CPU      0.03s WALL (     192 calls)
     cegterg:upda :      0.01s CPU      0.01s WALL (     192 calls)
     cegterg:last :      0.01s CPU      0.01s WALL (     182 calls)
     h_psi        :      0.39s CPU      0.46s WALL (     345 calls)
     g_psi        :      0.01s CPU      0.01s WALL (     192 calls)

     Called by h_psi:
     h_psi:calbec :      0.00s CPU      0.01s WALL (     345 calls)
     vloc_psi     :      0.38s CPU      0.45s WALL (     345 calls)
     add_vuspsi   :      0.00s CPU      0.00s WALL (     345 calls)

     General routines
     calbec       :      0.00s CPU      0.01s WALL (     345 calls)
     fft          :      0.00s CPU      0.01s WALL (     153 calls)
     ffts         :      0.00s CPU      0.00s WALL (      50 calls)
     fftw         :      0.42s CPU      0.50s WALL (   19492 calls)
     davcio       :      0.00s CPU      0.00s WALL (      21 calls)

     Parallel routines

     PWSCF        :      0.72s CPU      0.86s WALL


   This run was terminated on:  15: 9:24   4Sep2025            

=------------------------------------------------------------------------------=
   JOB DONE.
=------------------------------------------------------------------------------=
